<?xml version="1.0" encoding="ISO-8859-1"?>
<modeling>
 <generator>
  <i name="program" type="string">vasp </i>
  <i name="version" type="string">6.3.2  </i>
  <i name="subversion" type="string">27Jun22 (build Nov 14 2022 16:53:56) complex                          parallel </i>
  <i name="platform" type="string">Saga </i>
  <i name="date" type="string">2023 04 14 </i>
  <i name="time" type="string">14:56:51 </i>
 </generator>
 <incar>
  <i type="int" name="ISTART">     0</i>
  <i type="string" name="PREC">Accurate</i>
  <i type="int" name="ISPIN">     2</i>
  <i type="int" name="NELM">   100</i>
  <i type="int" name="NELMIN">     8</i>
  <i type="int" name="IBRION">     2</i>
  <i name="EDIFFG">     -0.02000000</i>
  <i type="int" name="NSW">  1500</i>
  <i type="int" name="ISYM">    -1</i>
  <i name="ENCUT">    400.00000000</i>
  <i type="int" name="ISMEAR">     0</i>
  <i name="SIGMA">      0.02000000</i>
  <i type="logical" name="LWAVE"> F  </i>
  <i type="logical" name="LCHARG"> F  </i>
  <i type="int" name="LORBIT">    10</i>
  <i type="string" name="GGA">PE</i>
 </incar>
 <primitive_cell>
  <structure name="primitive_cell" >
   <crystal>
    <varray name="basis" >
     <v>      16.00000000       0.00000000       0.00000000 </v>
     <v>       0.00000000      16.00000000       0.00000000 </v>
     <v>       0.00000000       0.00000000      16.00000000 </v>
    </varray>
    <i name="volume">   4096.00000000 </i>
    <varray name="rec_basis" >
     <v>       0.06250000       0.00000000       0.00000000 </v>
     <v>       0.00000000       0.06250000       0.00000000 </v>
     <v>       0.00000000       0.00000000       0.06250000 </v>
    </varray>
   </crystal>
   <varray name="positions" >
    <v>       0.25680188       0.46157563       0.39197625 </v>
    <v>       0.51737813       0.46256063       0.65715937 </v>
    <v>       0.54206375       0.69192250       0.36633312 </v>
    <v>       0.56985063       0.28067687       0.34938125 </v>
    <v>       0.37141625       0.46470375       0.62380812 </v>
    <v>       0.65626500       0.63687000       0.44565813 </v>
    <v>       0.67721750       0.34480625       0.43310125 </v>
    <v>       0.31936063       0.58483750       0.35292750 </v>
    <v>       0.32110563       0.34037875       0.35480812 </v>
    <v>       0.36313000       0.47002062       0.25620188 </v>
    <v>       0.56249187       0.28127750       0.50150750 </v>
    <v>       0.53890875       0.68725438       0.51703125 </v>
    <v>       0.61076062       0.56506750       0.31789375 </v>
    <v>       0.65400688       0.41907063       0.30277375 </v>
    <v>       0.45138875       0.58486062       0.57478750 </v>
    <v>       0.44842500       0.33277938       0.59315000 </v>
    <v>       0.45645875       0.58870687       0.30423812 </v>
    <v>       0.44960812       0.34464000       0.29186625 </v>
    <v>       0.44158437       0.31652688       0.43738063 </v>
    <v>       0.41495812       0.65326125       0.44139188 </v>
    <v>       0.33554125       0.53731812       0.49542625 </v>
    <v>       0.33062187       0.38717375       0.50080125 </v>
    <v>       0.51775375       0.46526437       0.26162937 </v>
    <v>       0.60108313       0.55427563       0.56555250 </v>
    <v>       0.61352625       0.40786312       0.55323250 </v>
    <v>       0.66742625       0.49293563       0.43774750 </v>
    <v>       0.47225313       0.44877375       0.51953563 </v>
    <v>       0.52460813       0.55939000       0.43655938 </v>
    <v>       0.55011000       0.41263937       0.39925813 </v>
    <v>       0.40804687       0.46596437       0.38774937 </v>
    <v>       0.66780612       0.56611608       0.77150980 </v>
    <v>       0.61605795       0.48765972       0.75557485 </v>
    <v>       0.65059749       0.59530977       0.83119895 </v>
    <v>       0.65828572       0.61250625       0.72179121 </v>
    <v>       0.54745376       0.50429046       0.75079089 </v>
    <v>       0.62858851       0.43937118       0.80512830 </v>
    <v>       0.73485269       0.55125871       0.77375967 </v>
    <v>       0.63083267       0.45676503       0.69601915 </v>
   </varray>
  </structure>
  <varray name="primitive_index" >
   <v type="int" >        1 </v>
   <v type="int" >        2 </v>
   <v type="int" >        3 </v>
   <v type="int" >        4 </v>
   <v type="int" >        5 </v>
   <v type="int" >        6 </v>
   <v type="int" >        7 </v>
   <v type="int" >        8 </v>
   <v type="int" >        9 </v>
   <v type="int" >       10 </v>
   <v type="int" >       11 </v>
   <v type="int" >       12 </v>
   <v type="int" >       13 </v>
   <v type="int" >       14 </v>
   <v type="int" >       15 </v>
   <v type="int" >       16 </v>
   <v type="int" >       17 </v>
   <v type="int" >       18 </v>
   <v type="int" >       19 </v>
   <v type="int" >       20 </v>
   <v type="int" >       21 </v>
   <v type="int" >       22 </v>
   <v type="int" >       23 </v>
   <v type="int" >       24 </v>
   <v type="int" >       25 </v>
   <v type="int" >       26 </v>
   <v type="int" >       27 </v>
   <v type="int" >       28 </v>
   <v type="int" >       29 </v>
   <v type="int" >       30 </v>
   <v type="int" >       31 </v>
   <v type="int" >       32 </v>
   <v type="int" >       33 </v>
   <v type="int" >       34 </v>
   <v type="int" >       35 </v>
   <v type="int" >       36 </v>
   <v type="int" >       37 </v>
   <v type="int" >       38 </v>
  </varray>
 </primitive_cell>
 <kpoints>
  <generation param="Monkhorst-Pack">
   <v type="int" name="divisions">       1        1        1 </v>
   <v name="usershift">      0.00000000       0.00000000       0.00000000 </v>
   <v name="genvec1">      1.00000000       0.00000000       0.00000000 </v>
   <v name="genvec2">      0.00000000       1.00000000       0.00000000 </v>
   <v name="genvec3">      0.00000000       0.00000000       1.00000000 </v>
   <v name="shift">      0.00000000       0.00000000       0.00000000 </v>
  </generation>
  <varray name="kpointlist" >
   <v>       0.00000000       0.00000000       0.00000000 </v>
  </varray>
  <varray name="weights" >
   <v>       1.00000000 </v>
  </varray>
 </kpoints>
 <parameters>
  <separator name="general" >
   <i type="string" name="SYSTEM">unknown system</i>
   <i type="logical" name="LCOMPAT"> F  </i>
  </separator>
  <separator name="electronic" >
   <i type="string" name="PREC">accura</i>
   <i name="ENMAX">    400.00000000</i>
   <i name="ENAUG">    644.87300000</i>
   <i name="EDIFF">      0.00010000</i>
   <i type="int" name="IALGO">    38</i>
   <i type="int" name="IWAVPR">    11</i>
   <i type="int" name="NBANDS">   208</i>
   <i type="int" name="NBANDSLOW">    -1</i>
   <i type="int" name="NBANDSHIGH">    -1</i>
   <i name="NELECT">    314.00000000</i>
   <i type="int" name="TURBO">     0</i>
   <i type="int" name="IRESTART">     0</i>
   <i type="int" name="NREBOOT">     0</i>
   <i type="int" name="NMIN">     0</i>
   <i name="EREF">      0.00000000</i>
   <separator name="electronic smearing" >
    <i type="int" name="ISMEAR">     0</i>
    <i name="SIGMA">      0.02000000</i>
    <i name="KSPACING">      0.50000000</i>
    <i type="logical" name="KGAMMA"> T  </i>
    <i type="logical" name="KBLOWUP"> F  </i>
   </separator>
   <separator name="electronic projectors" >
    <i type="logical" name="LREAL"> F  </i>
    <v name="ROPT">      0.00000000      0.00000000      0.00000000</v>
    <i type="int" name="LMAXPAW">  -100</i>
    <i type="int" name="LMAXMIX">     2</i>
    <i type="logical" name="NLSPLINE"> F  </i>
   </separator>
   <separator name="electronic startup" >
    <i type="int" name="ISTART">     0</i>
    <i type="int" name="ICHARG">     2</i>
    <i type="int" name="INIWAV">     1</i>
   </separator>
   <separator name="electronic spin" >
    <i type="int" name="ISPIN">     2</i>
    <i type="logical" name="LNONCOLLINEAR"> F  </i>
    <v name="MAGMOM">      1.00000000      1.00000000      1.00000000      1.00000000      1.00000000      1.00000000      1.00000000      1.00000000      1.00000000      1.00000000      1.00000000      1.00000000      1.00000000      1.00000000      1.00000000      1.00000000      1.00000000      1.00000000      1.00000000      1.00000000
      1.00000000      1.00000000      1.00000000      1.00000000      1.00000000      1.00000000      1.00000000      1.00000000      1.00000000      1.00000000      1.00000000      1.00000000      1.00000000      1.00000000      1.00000000      1.00000000      1.00000000      1.00000000</v>
    <i name="NUPDOWN">     -1.00000000</i>
    <i type="logical" name="LSORBIT"> F  </i>
    <v name="SAXIS">      0.00000000      0.00000000      1.00000000</v>
    <i type="logical" name="LSPIRAL"> F  </i>
    <v name="QSPIRAL">      0.00000000      0.00000000      0.00000000</v>
    <i type="logical" name="LZEROZ"> F  </i>
   </separator>
   <separator name="electronic exchange-correlation" >
    <i type="logical" name="LASPH"> F  </i>
    <i type="logical" name="LMETAGGA"> F  </i>
   </separator>
   <separator name="electronic convergence" >
    <i type="int" name="NELM">   100</i>
    <i type="int" name="NELMDL">    -5</i>
    <i type="int" name="NELMIN">     8</i>
    <i name="ENINI">    400.00000000</i>
    <separator name="electronic convergence detail" >
     <i type="logical" name="LDIAG"> T  </i>
     <i type="logical" name="LSUBROT"> F  </i>
     <i name="WEIMIN">      0.00100000</i>
     <i name="EBREAK">      0.00000012</i>
     <i name="DEPER">      0.30000000</i>
     <i type="int" name="NRMM">     4</i>
     <i name="TIME">      0.40000000</i>
    </separator>
   </separator>
   <separator name="electronic mixer" >
    <i name="AMIX">      0.40000000</i>
    <i name="BMIX">      1.00000000</i>
    <i name="AMIN">      0.10000000</i>
    <i name="AMIX_MAG">      1.60000000</i>
    <i name="BMIX_MAG">      1.00000000</i>
    <separator name="electronic mixer details" >
     <i type="int" name="IMIX">     4</i>
     <i type="logical" name="MIXFIRST"> F  </i>
     <i type="int" name="MAXMIX">   -45</i>
     <i name="WC">    100.00000000</i>
     <i type="int" name="INIMIX">     1</i>
     <i type="int" name="MIXPRE">     1</i>
     <i type="int" name="MREMOVE">     5</i>
    </separator>
   </separator>
   <separator name="electronic dipolcorrection" >
    <i type="logical" name="LDIPOL"> F  </i>
    <i type="logical" name="LMONO"> F  </i>
    <i type="int" name="IDIPOL">     0</i>
    <i name="EPSILON">      1.00000000</i>
    <v name="DIPOL">   -100.00000000   -100.00000000   -100.00000000</v>
    <i name="EFIELD">      0.00000000</i>
   </separator>
  </separator>
  <separator name="grids" >
   <i type="int" name="NGX">   108</i>
   <i type="int" name="NGY">   108</i>
   <i type="int" name="NGZ">   108</i>
   <i type="int" name="NGXF">   216</i>
   <i type="int" name="NGYF">   216</i>
   <i type="int" name="NGZF">   216</i>
   <i type="logical" name="ADDGRID"> F  </i>
  </separator>
  <separator name="ionic" >
   <i type="int" name="NSW">  1500</i>
   <i type="int" name="IBRION">     2</i>
   <i type="int" name="MDALGO">     0</i>
   <i type="int" name="ISIF">     2</i>
   <i name="PSTRESS">      0.00000000</i>
   <i name="EDIFFG">     -0.02000000</i>
   <i type="int" name="NFREE">     1</i>
   <i name="POTIM">      0.50000000</i>
   <i name="SMASS">     -3.00000000</i>
   <i name="SCALEE">      1.00000000</i>
  </separator>
  <separator name="ionic md" >
   <i name="TEBEG">      0.00010000</i>
   <i name="TEEND">      0.00010000</i>
   <i type="int" name="NBLOCK">     1</i>
   <i type="int" name="KBLOCK">  1500</i>
   <i type="int" name="NPACO">   256</i>
   <i name="APACO">     10.00000000</i>
  </separator>
  <separator name="symmetry" >
   <i type="int" name="ISYM">    -1</i>
   <i name="SYMPREC">      0.00001000</i>
  </separator>
  <separator name="dos" >
   <i type="int" name="LORBIT">    10</i>
   <v name="RWIGS">     -1.00000000     -1.00000000     -1.00000000</v>
   <i type="int" name="NEDOS">   301</i>
   <i name="EMIN">     10.00000000</i>
   <i name="EMAX">    -10.00000000</i>
   <i name="EFERMI">      0.00000000</i>
  </separator>
  <separator name="writing" >
   <i type="int" name="NWRITE">     2</i>
   <i type="logical" name="LWAVE"> F  </i>
   <i type="logical" name="LDOWNSAMPLE"> F  </i>
   <i type="logical" name="LCHARG"> F  </i>
   <i type="logical" name="LPARD"> F  </i>
   <i type="logical" name="LVTOT"> F  </i>
   <i type="logical" name="LVHAR"> F  </i>
   <i type="logical" name="LELF"> F  </i>
   <i type="logical" name="LOPTICS"> F  </i>
   <v name="STM">      0.00000000      0.00000000      0.00000000      0.00000000      0.00000000      0.00000000      0.00000000</v>
  </separator>
  <separator name="performance" >
   <i type="int" name="NPAR">     8</i>
   <i type="int" name="NSIM">     4</i>
   <i type="int" name="NBLK">    -1</i>
   <i type="logical" name="LPLANE"> T  </i>
   <i type="logical" name="LSCALAPACK"> T  </i>
   <i type="logical" name="LSCAAWARE"> F  </i>
   <i type="logical" name="LSCALU"> F  </i>
   <i type="logical" name="LASYNC"> F  </i>
   <i type="logical" name="LORBITALREAL"> F  </i>
  </separator>
  <separator name="miscellaneous" >
   <i type="int" name="IDIOT">     3</i>
   <i type="int" name="PHON_NSTRUCT">    -1</i>
   <i type="logical" name="LMUSIC"> F  </i>
   <v name="POMASS">     58.69000000     12.01100000      1.00000000</v>
   <v name="DARWINR">      0.00000000      0.00000000      0.00000000</v>
   <v name="DARWINV">      1.00000000      1.00000000      1.00000000</v>
   <i type="logical" name="LCORR"> T  </i>
  </separator>
  <i type="logical" name="GGA_COMPAT"> T  </i>
  <i type="logical" name="LBERRY"> F  </i>
  <i type="int" name="ICORELEVEL">     0</i>
  <i type="logical" name="LDAU"> F  </i>
  <i type="int" name="I_CONSTRAINED_M">     0</i>
  <separator name="electronic exchange-correlation" >
   <i type="string" name="GGA">PE</i>
   <i type="int" name="VOSKOWN">     0</i>
   <i type="logical" name="LHFCALC"> F  </i>
   <i type="string" name="PRECFOCK"></i>
   <i type="logical" name="LSYMGRAD"> F  </i>
   <i type="logical" name="LHFONE"> F  </i>
   <i type="logical" name="LRHFCALC"> F  </i>
   <i type="logical" name="LTHOMAS"> F  </i>
   <i type="logical" name="LMODELHF"> F  </i>
   <i type="logical" name="LFOCKACE"> F  </i>
   <i name="ENCUT4O">     -1.00000000</i>
   <i type="int" name="EXXOEP">     0</i>
   <i type="int" name="FOURORBIT">     0</i>
   <i name="AEXX">      0.00000000</i>
   <i name="HFALPHA">      0.00000000</i>
   <i name="MCALPHA">      0.00000000</i>
   <i name="ALDAX">      1.00000000</i>
   <i name="AGGAX">      1.00000000</i>
   <i name="ALDAC">      1.00000000</i>
   <i name="AGGAC">      1.00000000</i>
   <i type="int" name="NKREDX">     1</i>
   <i type="int" name="NKREDY">     1</i>
   <i type="int" name="NKREDZ">     1</i>
   <i type="logical" name="SHIFTRED"> F  </i>
   <i type="logical" name="ODDONLY"> F  </i>
   <i type="logical" name="EVENONLY"> F  </i>
   <i type="int" name="LMAXFOCK">     0</i>
   <i type="int" name="NMAXFOCKAE">     0</i>
   <i type="logical" name="LFOCKAEDFT"> F  </i>
   <i name="HFSCREEN">      0.00000000</i>
   <i name="HFSCREENC">      0.00000000</i>
   <i type="int" name="NBANDSGWLOW">     0</i>
  </separator>
  <separator name="vdW DFT" >
   <i type="logical" name="LUSE_VDW"> F  </i>
   <i name="Zab_VDW">     -0.84910000</i>
   <i name="PARAM1">      0.12340000</i>
   <i name="PARAM2">      1.00000000</i>
   <i name="PARAM3">      0.00000000</i>
  </separator>
  <separator name="model GW" >
   <i type="int" name="MODEL_GW">     0</i>
   <i name="MODEL_EPS0">     64.67368421</i>
   <i name="MODEL_ALPHA">      1.00000000</i>
  </separator>
  <separator name="linear response parameters" >
   <i type="logical" name="LEPSILON"> F  </i>
   <i type="logical" name="LRPA"> F  </i>
   <i type="logical" name="LNABLA"> F  </i>
   <i type="logical" name="LVEL"> F  </i>
   <i name="CSHIFT">      0.10000000</i>
   <i name="OMEGAMAX">     -1.00000000</i>
   <i name="DEG_THRESHOLD">      0.00200000</i>
   <i name="RTIME">     -0.10000000</i>
   <i name="WPLASMAI">      0.00000000</i>
   <v name="DFIELD">      0.00000000      0.00000000      0.00000000</v>
   <v name="WPLASMA">      0.00000000      0.00000000      0.00000000      0.00000000      0.00000000      0.00000000      0.00000000      0.00000000      0.00000000</v>
  </separator>
  <separator name="orbital magnetization" >
   <i type="logical" name="NUCIND"> F  </i>
   <v name="MAGPOS">      0.00000000      0.00000000      0.00000000</v>
   <i type="logical" name="LNICSALL"> T  </i>
   <i type="logical" name="ORBITALMAG"> F  </i>
   <i type="logical" name="LMAGBLOCH"> F  </i>
   <i type="logical" name="LCHIMAG"> F  </i>
   <i type="logical" name="LGAUGE"> T  </i>
   <i type="int" name="MAGATOM">     0</i>
   <v name="MAGDIPOL">      0.00000000      0.00000000      0.00000000</v>
   <v name="AVECCONST">      0.00000000      0.00000000      0.00000000</v>
  </separator>
  <separator name="response functions" >
   <i type="logical" name="LFINITE_TEMPERATURE"> F  </i>
   <i type="logical" name="LADDER"> F  </i>
   <i type="logical" name="LRPAFORCE"> F  </i>
   <i type="logical" name="LFXC"> F  </i>
   <i type="logical" name="LHARTREE"> T  </i>
   <i type="int" name="IBSE">     0</i>
   <v type="int" name="KPOINT">    -1     0     0     0</v>
   <i type="logical" name="LTCTC"> F  </i>
   <i type="logical" name="LTCTE"> F  </i>
   <i type="logical" name="LTETE"> F  </i>
   <i type="logical" name="LTRIPLET"> F  </i>
   <i type="logical" name="LFXCEPS"> F  </i>
   <i type="logical" name="LFXHEG"> F  </i>
   <i type="int" name="NATURALO">     2</i>
   <i type="logical" name="LHOLEGF"> F  </i>
   <i type="logical" name="L2ORDER"> F  </i>
   <i type="logical" name="LDMP1"> F  </i>
   <i type="logical" name="LMP2LT"> F  </i>
   <i type="logical" name="LSMP2LT"> F  </i>
   <i type="logical" name="LGWLF"> F  </i>
   <i name="ENCUTGW">     -2.00000000</i>
   <i name="ENCUTGWSOFT">     -2.00000000</i>
   <i name="ENCUTLF">     -1.00000000</i>
   <i type="logical" name="LESF_SPLINES"> F  </i>
   <i type="int" name="LMAXMP2">    -1</i>
   <i name="SCISSOR">      0.00000000</i>
   <i type="int" name="NOMEGA">     0</i>
   <i type="int" name="NOMEGAR">     0</i>
   <i type="int" name="NBANDSGW">    -1</i>
   <i type="int" name="NBANDSO">    -1</i>
   <i type="int" name="NBANDSV">    -1</i>
   <i type="int" name="NELMGW">     1</i>
   <i type="int" name="NELMHF">     1</i>
   <i type="int" name="DIM">     3</i>
   <i type="int" name="IESPILON">     4</i>
   <i type="int" name="ANTIRES">     0</i>
   <i name="OMEGAMAX">    -30.00000000</i>
   <i name="OMEGAMIN">    -30.00000000</i>
   <i name="OMEGATL">   -200.00000000</i>
   <i type="int" name="OMEGAGRID">     0</i>
   <i name="CSHIFT">     -0.10000000</i>
   <i type="logical" name="LSELFENERGY"> F  </i>
   <i type="logical" name="LSPECTRAL"> F  </i>
   <i type="logical" name="LSPECTRALGW"> F  </i>
   <i type="logical" name="LSINGLES"> F  </i>
   <i type="logical" name="LFERMIGW"> F  </i>
   <i type="logical" name="ODDONLYGW"> F  </i>
   <i type="logical" name="EVENONLYGW"> F  </i>
   <i type="int" name="NKREDLFX">     1</i>
   <i type="int" name="NKREDLFY">     1</i>
   <i type="int" name="NKREDLFZ">     1</i>
   <i type="int" name="MAXMEM">  2800</i>
   <i type="int" name="TELESCOPE">     0</i>
   <i type="int" name="NTAUPAR">    -1</i>
   <i type="int" name="NOMEGAPAR">    -1</i>
   <i name="DAMP_NEWTON">      0.80000001</i>
   <i name="LAMBDA">      1.00000000</i>
  </separator>
  <separator name="External order field" >
   <i name="OFIELD_KAPPA">      0.00000000</i>
   <v name="OFIELD_K">      0.00000000      0.00000000      0.00000000</v>
   <i name="OFIELD_Q6_NEAR">      0.00000000</i>
   <i name="OFIELD_Q6_FAR">      0.00000000</i>
   <i name="OFIELD_A">      0.00000000</i>
  </separator>
  <separator name="optional k-points parameters" >
   <i type="int" name="KPOINTS_OPT_MODE">     1</i>
   <i type="logical" name="LKPOINTS_OPT"> F  </i>
  </separator>
 </parameters>
 <atominfo>
  <atoms>      38 </atoms>
  <types>       3 </types>
  <array name="atoms" >
   <dimension dim="1">ion</dimension>
   <field type="string">element</field>
   <field type="int">atomtype</field>
   <set>
    <rc><c>Ni</c><c>   1</c></rc>
    <rc><c>Ni</c><c>   1</c></rc>
    <rc><c>Ni</c><c>   1</c></rc>
    <rc><c>Ni</c><c>   1</c></rc>
    <rc><c>Ni</c><c>   1</c></rc>
    <rc><c>Ni</c><c>   1</c></rc>
    <rc><c>Ni</c><c>   1</c></rc>
    <rc><c>Ni</c><c>   1</c></rc>
    <rc><c>Ni</c><c>   1</c></rc>
    <rc><c>Ni</c><c>   1</c></rc>
    <rc><c>Ni</c><c>   1</c></rc>
    <rc><c>Ni</c><c>   1</c></rc>
    <rc><c>Ni</c><c>   1</c></rc>
    <rc><c>Ni</c><c>   1</c></rc>
    <rc><c>Ni</c><c>   1</c></rc>
    <rc><c>Ni</c><c>   1</c></rc>
    <rc><c>Ni</c><c>   1</c></rc>
    <rc><c>Ni</c><c>   1</c></rc>
    <rc><c>Ni</c><c>   1</c></rc>
    <rc><c>Ni</c><c>   1</c></rc>
    <rc><c>Ni</c><c>   1</c></rc>
    <rc><c>Ni</c><c>   1</c></rc>
    <rc><c>Ni</c><c>   1</c></rc>
    <rc><c>Ni</c><c>   1</c></rc>
    <rc><c>Ni</c><c>   1</c></rc>
    <rc><c>Ni</c><c>   1</c></rc>
    <rc><c>Ni</c><c>   1</c></rc>
    <rc><c>Ni</c><c>   1</c></rc>
    <rc><c>Ni</c><c>   1</c></rc>
    <rc><c>Ni</c><c>   1</c></rc>
    <rc><c>C </c><c>   2</c></rc>
    <rc><c>C </c><c>   2</c></rc>
    <rc><c>H </c><c>   3</c></rc>
    <rc><c>H </c><c>   3</c></rc>
    <rc><c>H </c><c>   3</c></rc>
    <rc><c>H </c><c>   3</c></rc>
    <rc><c>H </c><c>   3</c></rc>
    <rc><c>H </c><c>   3</c></rc>
   </set>
  </array>
  <array name="atomtypes" >
   <dimension dim="1">type</dimension>
   <field type="int">atomspertype</field>
   <field type="string">element</field>
   <field>mass</field>
   <field>valence</field>
   <field type="string">pseudopotential</field>
   <set>
    <rc><c>  30</c><c>Ni</c><c>     58.69000000</c><c>     10.00000000</c><c>  PAW_PBE Ni 02Aug2007                  </c></rc>
    <rc><c>   2</c><c>C </c><c>     12.01100000</c><c>      4.00000000</c><c>  PAW_PBE C 08Apr2002                   </c></rc>
    <rc><c>   6</c><c>H </c><c>      1.00000000</c><c>      1.00000000</c><c>  PAW_PBE H 15Jun2001                   </c></rc>
   </set>
  </array>
 </atominfo>
 <structure name="initialpos" >
  <crystal>
   <varray name="basis" >
    <v>      16.00000000       0.00000000       0.00000000 </v>
    <v>       0.00000000      16.00000000       0.00000000 </v>
    <v>       0.00000000       0.00000000      16.00000000 </v>
   </varray>
   <i name="volume">   4096.00000000 </i>
   <varray name="rec_basis" >
    <v>       0.06250000       0.00000000       0.00000000 </v>
    <v>       0.00000000       0.06250000       0.00000000 </v>
    <v>       0.00000000       0.00000000       0.06250000 </v>
   </varray>
  </crystal>
  <varray name="positions" >
   <v>       0.25680188       0.46157563       0.39197625 </v>
   <v>       0.51737813       0.46256063       0.65715937 </v>
   <v>       0.54206375       0.69192250       0.36633312 </v>
   <v>       0.56985063       0.28067687       0.34938125 </v>
   <v>       0.37141625       0.46470375       0.62380812 </v>
   <v>       0.65626500       0.63687000       0.44565813 </v>
   <v>       0.67721750       0.34480625       0.43310125 </v>
   <v>       0.31936063       0.58483750       0.35292750 </v>
   <v>       0.32110563       0.34037875       0.35480812 </v>
   <v>       0.36313000       0.47002062       0.25620188 </v>
   <v>       0.56249187       0.28127750       0.50150750 </v>
   <v>       0.53890875       0.68725438       0.51703125 </v>
   <v>       0.61076062       0.56506750       0.31789375 </v>
   <v>       0.65400688       0.41907063       0.30277375 </v>
   <v>       0.45138875       0.58486062       0.57478750 </v>
   <v>       0.44842500       0.33277938       0.59315000 </v>
   <v>       0.45645875       0.58870687       0.30423812 </v>
   <v>       0.44960812       0.34464000       0.29186625 </v>
   <v>       0.44158437       0.31652688       0.43738063 </v>
   <v>       0.41495812       0.65326125       0.44139188 </v>
   <v>       0.33554125       0.53731812       0.49542625 </v>
   <v>       0.33062187       0.38717375       0.50080125 </v>
   <v>       0.51775375       0.46526437       0.26162937 </v>
   <v>       0.60108313       0.55427563       0.56555250 </v>
   <v>       0.61352625       0.40786312       0.55323250 </v>
   <v>       0.66742625       0.49293563       0.43774750 </v>
   <v>       0.47225313       0.44877375       0.51953563 </v>
   <v>       0.52460813       0.55939000       0.43655938 </v>
   <v>       0.55011000       0.41263937       0.39925813 </v>
   <v>       0.40804687       0.46596437       0.38774937 </v>
   <v>       0.66780612       0.56611608       0.77150980 </v>
   <v>       0.61605795       0.48765972       0.75557485 </v>
   <v>       0.65059749       0.59530977       0.83119895 </v>
   <v>       0.65828572       0.61250625       0.72179121 </v>
   <v>       0.54745376       0.50429046       0.75079089 </v>
   <v>       0.62858851       0.43937118       0.80512830 </v>
   <v>       0.73485269       0.55125871       0.77375967 </v>
   <v>       0.63083267       0.45676503       0.69601915 </v>
  </varray>
 </structure>
 <calculation>
  <scstep>
   <time name="dav">    1.34    1.37</time>
   <time name="total">    1.62    1.65</time>
   <energy>
    <i name="alphaZ">    121.55789341 </i>
    <i name="ewald">  57458.17262156 </i>
    <i name="hartreedc"> -87544.38362820 </i>
    <i name="XCdc">    974.73827827 </i>
    <i name="pawpsdc">  29112.54878308 </i>
    <i name="pawaedc"> -31118.84627658 </i>
    <i name="eentropy">     -0.00615644 </i>
    <i name="bandstr">    -93.30989152 </i>
    <i name="atom">  32699.04135762 </i>
    <i name="e_fr_energy">   1609.51298119 </i>
    <i name="e_wo_entrp">   1609.51913763 </i>
    <i name="e_0_energy">   1609.51605941 </i>
   </energy>
  </scstep>
  <scstep>
   <time name="dav">    1.38    1.41</time>
   <time name="total">    1.39    1.41</time>
   <energy>
    <i name="e_fr_energy">    -54.11460502 </i>
    <i name="e_wo_entrp">    -54.10339568 </i>
    <i name="e_0_energy">    -54.10900035 </i>
   </energy>
  </scstep>
  <scstep>
   <time name="dav">    1.50    1.52</time>
   <time name="total">    1.51    1.52</time>
   <energy>
    <i name="e_fr_energy">   -177.27912064 </i>
    <i name="e_wo_entrp">   -177.26027744 </i>
    <i name="e_0_energy">   -177.26969904 </i>
   </energy>
  </scstep>
  <scstep>
   <time name="dav">    1.51    1.53</time>
   <time name="total">    1.51    1.53</time>
   <energy>
    <i name="e_fr_energy">   -183.15806548 </i>
    <i name="e_wo_entrp">   -183.13929449 </i>
    <i name="e_0_energy">   -183.14867998 </i>
   </energy>
  </scstep>
  <scstep>
   <time name="dav">    1.63    1.66</time>
   <time name="total">    1.71    1.73</time>
   <energy>
    <i name="e_fr_energy">   -183.39640508 </i>
    <i name="e_wo_entrp">   -183.37763540 </i>
    <i name="e_0_energy">   -183.38702024 </i>
   </energy>
  </scstep>
  <scstep>
   <time name="dav">    1.39    1.40</time>
   <time name="total">    1.69    1.71</time>
   <energy>
    <i name="e_fr_energy">   -178.74668197 </i>
    <i name="e_wo_entrp">   -178.73545619 </i>
    <i name="e_0_energy">   -178.74106908 </i>
   </energy>
  </scstep>
  <scstep>
   <time name="dav">    1.36    1.36</time>
   <time name="total">    1.66    1.68</time>
   <energy>
    <i name="e_fr_energy">   -169.17143729 </i>
    <i name="e_wo_entrp">   -169.15984229 </i>
    <i name="e_0_energy">   -169.16563979 </i>
   </energy>
  </scstep>
  <scstep>
   <time name="dav">    1.35    1.36</time>
   <time name="total">    1.65    1.67</time>
   <energy>
    <i name="e_fr_energy">   -169.90693171 </i>
    <i name="e_wo_entrp">   -169.89438594 </i>
    <i name="e_0_energy">   -169.90065883 </i>
   </energy>
  </scstep>
  <scstep>
   <time name="dav">    1.41    1.42</time>
   <time name="total">    1.70    1.72</time>
   <energy>
    <i name="e_fr_energy">   -166.49032963 </i>
    <i name="e_wo_entrp">   -166.47566256 </i>
    <i name="e_0_energy">   -166.48299610 </i>
   </energy>
  </scstep>
  <scstep>
   <time name="dav">    1.41    1.42</time>
   <time name="total">    1.70    1.72</time>
   <energy>
    <i name="e_fr_energy">   -162.83366206 </i>
    <i name="e_wo_entrp">   -162.81884847 </i>
    <i name="e_0_energy">   -162.82625526 </i>
   </energy>
  </scstep>
  <scstep>
   <time name="dav">    1.35    1.36</time>
   <time name="total">    1.64    1.66</time>
   <energy>
    <i name="e_fr_energy">   -165.82905163 </i>
    <i name="e_wo_entrp">   -165.81563416 </i>
    <i name="e_0_energy">   -165.82234290 </i>
   </energy>
  </scstep>
  <scstep>
   <time name="dav">    1.43    1.44</time>
   <time name="total">    1.72    1.74</time>
   <energy>
    <i name="e_fr_energy">   -161.04861074 </i>
    <i name="e_wo_entrp">   -161.03311936 </i>
    <i name="e_0_energy">   -161.04086505 </i>
   </energy>
  </scstep>
  <scstep>
   <time name="dav">    1.34    1.35</time>
   <time name="total">    1.63    1.65</time>
   <energy>
    <i name="e_fr_energy">   -156.28026673 </i>
    <i name="e_wo_entrp">   -156.27770976 </i>
    <i name="e_0_energy">   -156.27898825 </i>
   </energy>
  </scstep>
  <scstep>
   <time name="dav">    1.48    1.48</time>
   <time name="total">    1.76    1.78</time>
   <energy>
    <i name="e_fr_energy">   -153.79003859 </i>
    <i name="e_wo_entrp">   -153.78627879 </i>
    <i name="e_0_energy">   -153.78815869 </i>
   </energy>
  </scstep>
  <scstep>
   <time name="dav">    1.39    1.39</time>
   <time name="total">    1.67    1.69</time>
   <energy>
    <i name="e_fr_energy">   -153.39963614 </i>
    <i name="e_wo_entrp">   -153.38635954 </i>
    <i name="e_0_energy">   -153.39299784 </i>
   </energy>
  </scstep>
  <scstep>
   <time name="dav">    1.35    1.35</time>
   <time name="total">    1.63    1.66</time>
   <energy>
    <i name="e_fr_energy">   -153.58846166 </i>
    <i name="e_wo_entrp">   -153.57529141 </i>
    <i name="e_0_energy">   -153.58187653 </i>
   </energy>
  </scstep>
  <scstep>
   <time name="dav">    1.34    1.35</time>
   <time name="total">    1.63    1.65</time>
   <energy>
    <i name="e_fr_energy">   -154.96393274 </i>
    <i name="e_wo_entrp">   -154.95037751 </i>
    <i name="e_0_energy">   -154.95715512 </i>
   </energy>
  </scstep>
  <scstep>
   <time name="dav">    1.36    1.37</time>
   <time name="total">    1.65    1.67</time>
   <energy>
    <i name="e_fr_energy">   -155.14738050 </i>
    <i name="e_wo_entrp">   -155.13266114 </i>
    <i name="e_0_energy">   -155.14002082 </i>
   </energy>
  </scstep>
  <scstep>
   <time name="dav">    1.37    1.37</time>
   <time name="total">    1.65    1.68</time>
   <energy>
    <i name="e_fr_energy">   -155.87031473 </i>
    <i name="e_wo_entrp">   -155.86401804 </i>
    <i name="e_0_energy">   -155.86716638 </i>
   </energy>
  </scstep>
  <scstep>
   <time name="dav">    1.48    1.49</time>
   <time name="total">    1.77    1.79</time>
   <energy>
    <i name="e_fr_energy">   -157.01877917 </i>
    <i name="e_wo_entrp">   -157.01045072 </i>
    <i name="e_0_energy">   -157.01461494 </i>
   </energy>
  </scstep>
  <scstep>
   <time name="dav">    1.34    1.34</time>
   <time name="total">    1.62    1.64</time>
   <energy>
    <i name="e_fr_energy">   -157.38668730 </i>
    <i name="e_wo_entrp">   -157.38212848 </i>
    <i name="e_0_energy">   -157.38440789 </i>
   </energy>
  </scstep>
  <scstep>
   <time name="dav">    1.41    1.41</time>
   <time name="total">    1.69    1.71</time>
   <energy>
    <i name="e_fr_energy">   -159.10234110 </i>
    <i name="e_wo_entrp">   -159.08976110 </i>
    <i name="e_0_energy">   -159.09605110 </i>
   </energy>
  </scstep>
  <scstep>
   <time name="dav">    1.36    1.36</time>
   <time name="total">    1.64    1.66</time>
   <energy>
    <i name="e_fr_energy">   -160.20007982 </i>
    <i name="e_wo_entrp">   -160.18633014 </i>
    <i name="e_0_energy">   -160.19320498 </i>
   </energy>
  </scstep>
  <scstep>
   <time name="dav">    1.43    1.43</time>
   <time name="total">    1.72    1.74</time>
   <energy>
    <i name="e_fr_energy">   -161.32174609 </i>
    <i name="e_wo_entrp">   -161.31091244 </i>
    <i name="e_0_energy">   -161.31632926 </i>
   </energy>
  </scstep>
  <scstep>
   <time name="dav">    1.33    1.33</time>
   <time name="total">    1.61    1.64</time>
   <energy>
    <i name="e_fr_energy">   -162.90727889 </i>
    <i name="e_wo_entrp">   -162.89650740 </i>
    <i name="e_0_energy">   -162.90189315 </i>
   </energy>
  </scstep>
  <scstep>
   <time name="dav">    1.37    1.38</time>
   <time name="total">    1.66    1.68</time>
   <energy>
    <i name="e_fr_energy">   -163.17079537 </i>
    <i name="e_wo_entrp">   -163.16048205 </i>
    <i name="e_0_energy">   -163.16563871 </i>
   </energy>
  </scstep>
  <scstep>
   <time name="dav">    1.33    1.33</time>
   <time name="total">    1.62    1.63</time>
   <energy>
    <i name="e_fr_energy">   -164.46571046 </i>
    <i name="e_wo_entrp">   -164.45871959 </i>
    <i name="e_0_energy">   -164.46221502 </i>
   </energy>
  </scstep>
  <scstep>
   <time name="dav">    1.37    1.37</time>
   <time name="total">    1.66    1.68</time>
   <energy>
    <i name="e_fr_energy">   -164.71967993 </i>
    <i name="e_wo_entrp">   -164.70912895 </i>
    <i name="e_0_energy">   -164.71440444 </i>
   </energy>
  </scstep>
  <scstep>
   <time name="dav">    1.35    1.36</time>
   <time name="total">    1.65    1.66</time>
   <energy>
    <i name="e_fr_energy">   -165.15267209 </i>
    <i name="e_wo_entrp">   -165.14157049 </i>
    <i name="e_0_energy">   -165.14712129 </i>
   </energy>
  </scstep>
  <scstep>
   <time name="dav">    1.35    1.35</time>
   <time name="total">    1.64    1.66</time>
   <energy>
    <i name="e_fr_energy">   -165.50595914 </i>
    <i name="e_wo_entrp">   -165.49565779 </i>
    <i name="e_0_energy">   -165.50080846 </i>
   </energy>
  </scstep>
  <scstep>
   <time name="dav">    1.37    1.37</time>
   <time name="total">    1.67    1.68</time>
   <energy>
    <i name="e_fr_energy">   -165.72102578 </i>
    <i name="e_wo_entrp">   -165.71161448 </i>
    <i name="e_0_energy">   -165.71632013 </i>
   </energy>
  </scstep>
  <scstep>
   <time name="dav">    1.36    1.36</time>
   <time name="total">    1.64    1.66</time>
   <energy>
    <i name="e_fr_energy">   -166.10300758 </i>
    <i name="e_wo_entrp">   -166.09602680 </i>
    <i name="e_0_energy">   -166.09951719 </i>
   </energy>
  </scstep>
  <scstep>
   <time name="dav">    1.33    1.33</time>
   <time name="total">    1.62    1.63</time>
   <energy>
    <i name="e_fr_energy">   -166.35107518 </i>
    <i name="e_wo_entrp">   -166.34262027 </i>
    <i name="e_0_energy">   -166.34684773 </i>
   </energy>
  </scstep>
  <scstep>
   <time name="dav">    1.41    1.41</time>
   <time name="total">    1.69    1.72</time>
   <energy>
    <i name="e_fr_energy">   -167.00981809 </i>
    <i name="e_wo_entrp">   -167.00253098 </i>
    <i name="e_0_energy">   -167.00617453 </i>
   </energy>
  </scstep>
  <scstep>
   <time name="dav">    1.37    1.38</time>
   <time name="total">    1.66    1.68</time>
   <energy>
    <i name="e_fr_energy">   -167.20828289 </i>
    <i name="e_wo_entrp">   -167.20038571 </i>
    <i name="e_0_energy">   -167.20433430 </i>
   </energy>
  </scstep>
  <scstep>
   <time name="dav">    1.31    1.32</time>
   <time name="total">    1.60    1.62</time>
   <energy>
    <i name="e_fr_energy">   -167.62832441 </i>
    <i name="e_wo_entrp">   -167.62140438 </i>
    <i name="e_0_energy">   -167.62486440 </i>
   </energy>
  </scstep>
  <scstep>
   <time name="dav">    1.38    1.38</time>
   <time name="total">    1.66    1.69</time>
   <energy>
    <i name="e_fr_energy">   -167.74511645 </i>
    <i name="e_wo_entrp">   -167.73773400 </i>
    <i name="e_0_energy">   -167.74142522 </i>
   </energy>
  </scstep>
  <scstep>
   <time name="dav">    1.41    1.41</time>
   <time name="total">    1.70    1.71</time>
   <energy>
    <i name="e_fr_energy">   -167.97326892 </i>
    <i name="e_wo_entrp">   -167.96636184 </i>
    <i name="e_0_energy">   -167.96981538 </i>
   </energy>
  </scstep>
  <scstep>
   <time name="dav">    1.34    1.35</time>
   <time name="total">    1.64    1.65</time>
   <energy>
    <i name="e_fr_energy">   -168.08423934 </i>
    <i name="e_wo_entrp">   -168.07808353 </i>
    <i name="e_0_energy">   -168.08116144 </i>
   </energy>
  </scstep>
  <scstep>
   <time name="dav">    1.40    1.40</time>
   <time name="total">    1.69    1.71</time>
   <energy>
    <i name="e_fr_energy">   -168.20439522 </i>
    <i name="e_wo_entrp">   -168.19859876 </i>
    <i name="e_0_energy">   -168.20149699 </i>
   </energy>
  </scstep>
  <scstep>
   <time name="dav">    1.35    1.35</time>
   <time name="total">    1.65    1.66</time>
   <energy>
    <i name="e_fr_energy">   -168.34629505 </i>
    <i name="e_wo_entrp">   -168.34045492 </i>
    <i name="e_0_energy">   -168.34337498 </i>
   </energy>
  </scstep>
  <scstep>
   <time name="dav">    1.48    1.48</time>
   <time name="total">    1.76    1.79</time>
   <energy>
    <i name="e_fr_energy">   -168.59323759 </i>
    <i name="e_wo_entrp">   -168.58662386 </i>
    <i name="e_0_energy">   -168.58993072 </i>
   </energy>
  </scstep>
  <scstep>
   <time name="dav">    1.37    1.38</time>
   <time name="total">    1.67    1.68</time>
   <energy>
    <i name="e_fr_energy">   -168.65506533 </i>
    <i name="e_wo_entrp">   -168.64837041 </i>
    <i name="e_0_energy">   -168.65171787 </i>
   </energy>
  </scstep>
  <scstep>
   <time name="dav">    1.44    1.45</time>
   <time name="total">    1.74    1.75</time>
   <energy>
    <i name="e_fr_energy">   -168.69362268 </i>
    <i name="e_wo_entrp">   -168.68698130 </i>
    <i name="e_0_energy">   -168.69030199 </i>
   </energy>
  </scstep>
  <scstep>
   <time name="dav">    1.40    1.40</time>
   <time name="total">    1.69    1.71</time>
   <energy>
    <i name="e_fr_energy">   -168.70774189 </i>
    <i name="e_wo_entrp">   -168.70108895 </i>
    <i name="e_0_energy">   -168.70441542 </i>
   </energy>
  </scstep>
  <scstep>
   <time name="dav">    1.54    1.54</time>
   <time name="total">    1.84    1.85</time>
   <energy>
    <i name="e_fr_energy">   -168.75619568 </i>
    <i name="e_wo_entrp">   -168.74957012 </i>
    <i name="e_0_energy">   -168.75288290 </i>
   </energy>
  </scstep>
  <scstep>
   <time name="dav">    1.44    1.45</time>
   <time name="total">    1.73    1.75</time>
   <energy>
    <i name="e_fr_energy">   -168.77240501 </i>
    <i name="e_wo_entrp">   -168.76584218 </i>
    <i name="e_0_energy">   -168.76912360 </i>
   </energy>
  </scstep>
  <scstep>
   <time name="dav">    1.45    1.45</time>
   <time name="total">    1.74    1.76</time>
   <energy>
    <i name="e_fr_energy">   -168.79800726 </i>
    <i name="e_wo_entrp">   -168.79142623 </i>
    <i name="e_0_energy">   -168.79471674 </i>
   </energy>
  </scstep>
  <scstep>
   <time name="dav">    1.34    1.34</time>
   <time name="total">    1.63    1.65</time>
   <energy>
    <i name="e_fr_energy">   -168.80424246 </i>
    <i name="e_wo_entrp">   -168.79780524 </i>
    <i name="e_0_energy">   -168.80102385 </i>
   </energy>
  </scstep>
  <scstep>
   <time name="dav">    1.39    1.39</time>
   <time name="total">    1.69    1.70</time>
   <energy>
    <i name="e_fr_energy">   -168.81981289 </i>
    <i name="e_wo_entrp">   -168.81337996 </i>
    <i name="e_0_energy">   -168.81659643 </i>
   </energy>
  </scstep>
  <scstep>
   <time name="dav">    1.14    1.15</time>
   <time name="total">    1.43    1.45</time>
   <energy>
    <i name="e_fr_energy">   -168.82224385 </i>
    <i name="e_wo_entrp">   -168.81584580 </i>
    <i name="e_0_energy">   -168.81904482 </i>
   </energy>
  </scstep>
  <scstep>
   <time name="dav">    1.22    1.22</time>
   <time name="total">    1.52    1.53</time>
   <energy>
    <i name="e_fr_energy">   -168.82793503 </i>
    <i name="e_wo_entrp">   -168.82160294 </i>
    <i name="e_0_energy">   -168.82476899 </i>
   </energy>
  </scstep>
  <scstep>
   <time name="dav">    1.11    1.11</time>
   <time name="total">    1.40    1.42</time>
   <energy>
    <i name="e_fr_energy">   -168.82939262 </i>
    <i name="e_wo_entrp">   -168.82302513 </i>
    <i name="e_0_energy">   -168.82620887 </i>
   </energy>
  </scstep>
  <scstep>
   <time name="dav">    1.09    1.10</time>
   <time name="total">    1.39    1.40</time>
   <energy>
    <i name="e_fr_energy">   -168.83173868 </i>
    <i name="e_wo_entrp">   -168.82538028 </i>
    <i name="e_0_energy">   -168.82855948 </i>
   </energy>
  </scstep>
  <scstep>
   <time name="dav">    1.04    1.04</time>
   <time name="total">    1.33    1.35</time>
   <energy>
    <i name="e_fr_energy">   -168.83228328 </i>
    <i name="e_wo_entrp">   -168.82589146 </i>
    <i name="e_0_energy">   -168.82908737 </i>
   </energy>
  </scstep>
  <scstep>
   <time name="dav">    1.00    1.00</time>
   <time name="total">    1.29    1.31</time>
   <energy>
    <i name="e_fr_energy">   -168.83388014 </i>
    <i name="e_wo_entrp">   -168.82747853 </i>
    <i name="e_0_energy">   -168.83067934 </i>
   </energy>
  </scstep>
  <scstep>
   <time name="dav">    1.01    1.01</time>
   <time name="total">    1.30    1.32</time>
   <energy>
    <i name="e_fr_energy">   -168.83439601 </i>
    <i name="e_wo_entrp">   -168.82803486 </i>
    <i name="e_0_energy">   -168.83121544 </i>
   </energy>
  </scstep>
  <scstep>
   <time name="dav">    0.96    0.97</time>
   <time name="total">    1.26    1.28</time>
   <energy>
    <i name="e_fr_energy">   -168.83496813 </i>
    <i name="e_wo_entrp">   -168.82860753 </i>
    <i name="e_0_energy">   -168.83178783 </i>
   </energy>
  </scstep>
  <scstep>
   <time name="dav">    1.02    1.02</time>
   <time name="total">    1.31    1.33</time>
   <energy>
    <i name="e_fr_energy">   -168.83556017 </i>
    <i name="e_wo_entrp">   -168.82918216 </i>
    <i name="e_0_energy">   -168.83237116 </i>
   </energy>
  </scstep>
  <scstep>
   <time name="dav">    1.01    1.01</time>
   <time name="total">    1.30    1.32</time>
   <energy>
    <i name="e_fr_energy">   -168.83578434 </i>
    <i name="e_wo_entrp">   -168.82941248 </i>
    <i name="e_0_energy">   -168.83259841 </i>
   </energy>
  </scstep>
  <scstep>
   <time name="dav">    1.01    1.01</time>
   <time name="total">    1.31    1.32</time>
   <energy>
    <i name="e_fr_energy">   -168.83606735 </i>
    <i name="e_wo_entrp">   -168.82967852 </i>
    <i name="e_0_energy">   -168.83287293 </i>
   </energy>
  </scstep>
  <scstep>
   <time name="dav">    1.00    1.00</time>
   <time name="total">    1.29    1.31</time>
   <energy>
    <i name="e_fr_energy">   -168.83617361 </i>
    <i name="e_wo_entrp">   -168.82978753 </i>
    <i name="e_0_energy">   -168.83298057 </i>
   </energy>
  </scstep>
  <scstep>
   <time name="dav">    0.99    1.00</time>
   <time name="total">    1.21    1.23</time>
   <energy>
    <i name="alphaZ">    121.55789341 </i>
    <i name="ewald">  57458.17262156 </i>
    <i name="hartreedc"> -87720.89966394 </i>
    <i name="XCdc">    955.21499818 </i>
    <i name="pawpsdc">  34079.27038254 </i>
    <i name="pawaedc"> -36128.30094447 </i>
    <i name="eentropy">     -0.00638343 </i>
    <i name="bandstr">  -1632.88648625 </i>
    <i name="atom">  32699.04135762 </i>
    <i name="e_fr_energy">   -168.83622479 </i>
    <i name="e_wo_entrp">   -168.82984136 </i>
    <i name="e_0_energy">   -168.83303307 </i>
   </energy>
  </scstep>
  <structure>
   <crystal>
    <varray name="basis" >
     <v>      16.00000000       0.00000000       0.00000000 </v>
     <v>       0.00000000      16.00000000       0.00000000 </v>
     <v>       0.00000000       0.00000000      16.00000000 </v>
    </varray>
    <i name="volume">   4096.00000000 </i>
    <varray name="rec_basis" >
     <v>       0.06250000       0.00000000       0.00000000 </v>
     <v>       0.00000000       0.06250000       0.00000000 </v>
     <v>       0.00000000       0.00000000       0.06250000 </v>
    </varray>
   </crystal>
   <varray name="positions" >
    <v>       0.25680188       0.46157563       0.39197625 </v>
    <v>       0.51737813       0.46256063       0.65715937 </v>
    <v>       0.54206375       0.69192250       0.36633312 </v>
    <v>       0.56985063       0.28067687       0.34938125 </v>
    <v>       0.37141625       0.46470375       0.62380812 </v>
    <v>       0.65626500       0.63687000       0.44565813 </v>
    <v>       0.67721750       0.34480625       0.43310125 </v>
    <v>       0.31936063       0.58483750       0.35292750 </v>
    <v>       0.32110563       0.34037875       0.35480812 </v>
    <v>       0.36313000       0.47002062       0.25620188 </v>
    <v>       0.56249187       0.28127750       0.50150750 </v>
    <v>       0.53890875       0.68725438       0.51703125 </v>
    <v>       0.61076062       0.56506750       0.31789375 </v>
    <v>       0.65400688       0.41907063       0.30277375 </v>
    <v>       0.45138875       0.58486062       0.57478750 </v>
    <v>       0.44842500       0.33277938       0.59315000 </v>
    <v>       0.45645875       0.58870687       0.30423812 </v>
    <v>       0.44960812       0.34464000       0.29186625 </v>
    <v>       0.44158437       0.31652688       0.43738063 </v>
    <v>       0.41495812       0.65326125       0.44139188 </v>
    <v>       0.33554125       0.53731812       0.49542625 </v>
    <v>       0.33062187       0.38717375       0.50080125 </v>
    <v>       0.51775375       0.46526437       0.26162937 </v>
    <v>       0.60108313       0.55427563       0.56555250 </v>
    <v>       0.61352625       0.40786312       0.55323250 </v>
    <v>       0.66742625       0.49293563       0.43774750 </v>
    <v>       0.47225313       0.44877375       0.51953563 </v>
    <v>       0.52460813       0.55939000       0.43655938 </v>
    <v>       0.55011000       0.41263937       0.39925813 </v>
    <v>       0.40804687       0.46596437       0.38774937 </v>
    <v>       0.66780612       0.56611608       0.77150980 </v>
    <v>       0.61605795       0.48765972       0.75557485 </v>
    <v>       0.65059749       0.59530977       0.83119895 </v>
    <v>       0.65828572       0.61250625       0.72179121 </v>
    <v>       0.54745376       0.50429046       0.75079089 </v>
    <v>       0.62858851       0.43937118       0.80512830 </v>
    <v>       0.73485269       0.55125871       0.77375967 </v>
    <v>       0.63083267       0.45676503       0.69601915 </v>
   </varray>
  </structure>
  <varray name="forces" >
   <v>      -0.04274789       0.03515624      -0.02977692 </v>
   <v>      -0.07989333       0.14424359      -0.51780601 </v>
   <v>       0.02387160       0.03749184       0.03278319 </v>
   <v>      -0.00569935      -0.00190570       0.01458615 </v>
   <v>       0.05718273      -0.04612918      -0.11075247 </v>
   <v>       0.00676680      -0.00621080       0.05421550 </v>
   <v>       0.12629382      -0.01206181       0.03255585 </v>
   <v>       0.04766729      -0.12885971       0.05980966 </v>
   <v>       0.04324923       0.03001659      -0.00036074 </v>
   <v>      -0.01239284       0.00419129      -0.08071650 </v>
   <v>      -0.00303886       0.00178819      -0.00371134 </v>
   <v>      -0.00696154       0.05263289      -0.02623473 </v>
   <v>      -0.02996189      -0.02053165      -0.00624188 </v>
   <v>      -0.00883321      -0.01637772       0.07072926 </v>
   <v>       0.07773041      -0.07787468       0.12476609 </v>
   <v>       0.02660950      -0.08535334      -0.09548922 </v>
   <v>       0.04405895      -0.00414754      -0.02667029 </v>
   <v>      -0.02125400      -0.00062246       0.00577856 </v>
   <v>       0.01576372      -0.02079649      -0.01406962 </v>
   <v>      -0.02831757      -0.00078116       0.03683993 </v>
   <v>       0.00689365       0.08379056       0.02207098 </v>
   <v>       0.09174330       0.01057286       0.10111578 </v>
   <v>      -0.02425457      -0.01941842       0.04182400 </v>
   <v>      -0.12875643       0.09446139      -0.58531165 </v>
   <v>      -0.29863247      -0.00045399      -0.45441325 </v>
   <v>      -0.00134017      -0.04759057       0.27166590 </v>
   <v>       0.09470549      -0.07963064       0.37365691 </v>
   <v>       0.05278598      -0.03750711       0.04965870 </v>
   <v>      -0.13101844       0.04476441      -0.08542841 </v>
   <v>      -0.02826176       0.02311223      -0.08102775 </v>
   <v>      -0.07712793      -0.04148892      -0.21837909 </v>
   <v>       0.22521120      -0.39694409       1.12842854 </v>
   <v>      -0.03123125       0.01229028       0.02823388 </v>
   <v>       0.00209256       0.11017240      -0.06087277 </v>
   <v>      -0.15639236       0.22723864       1.02383771 </v>
   <v>      -0.58467309       0.48656707      -0.47547863 </v>
   <v>      -0.00528091      -0.04021994      -0.00254545 </v>
   <v>       0.76344362      -0.31358455      -0.59726988 </v>
  </varray>
  <varray name="stress" >
   <v>      -1.04280079      -0.00798785      -0.35527437 </v>
   <v>      -0.00798784      -0.68108640       0.46951975 </v>
   <v>      -0.35527439       0.46951977      -0.47701400 </v>
  </varray>
  <energy>
   <i name="e_fr_energy">   -168.83622479 </i>
   <i name="e_wo_entrp">   -168.82984136 </i>
   <i name="e_0_energy">   -168.83303307 </i>
  </energy>
  <time name="totalsc">  102.40  103.66</time>
 </calculation>
 <calculation>
  <scstep>
   <time name="dav">    1.29    1.29</time>
   <time name="total">    1.58    1.58</time>
   <energy>
    <i name="alphaZ">    121.55789341 </i>
    <i name="ewald">  57541.15379805 </i>
    <i name="hartreedc"> -87803.69855954 </i>
    <i name="XCdc">    955.26869817 </i>
    <i name="pawpsdc">  34079.23139298 </i>
    <i name="pawaedc"> -36128.26175955 </i>
    <i name="eentropy">     -0.00513509 </i>
    <i name="bandstr">  -1633.09557524 </i>
    <i name="atom">  32699.04135762 </i>
    <i name="e_fr_energy">   -168.80788919 </i>
    <i name="e_wo_entrp">   -168.80275410 </i>
    <i name="e_0_energy">   -168.80532164 </i>
   </energy>
  </scstep>
  <scstep>
   <time name="dav">    1.51    1.52</time>
   <time name="total">    1.81    1.82</time>
   <energy>
    <i name="e_fr_energy">   -169.07774591 </i>
    <i name="e_wo_entrp">   -169.07071197 </i>
    <i name="e_0_energy">   -169.07422894 </i>
   </energy>
  </scstep>
  <scstep>
   <time name="dav">    1.39    1.39</time>
   <time name="total">    1.68    1.69</time>
   <energy>
    <i name="e_fr_energy">   -168.85926916 </i>
    <i name="e_wo_entrp">   -168.85476940 </i>
    <i name="e_0_energy">   -168.85701928 </i>
   </energy>
  </scstep>
  <scstep>
   <time name="dav">    1.64    1.64</time>
   <time name="total">    1.93    1.95</time>
   <energy>
    <i name="e_fr_energy">   -168.86369764 </i>
    <i name="e_wo_entrp">   -168.85788233 </i>
    <i name="e_0_energy">   -168.86078998 </i>
   </energy>
  </scstep>
  <scstep>
   <time name="dav">    1.56    1.56</time>
   <time name="total">    1.85    1.87</time>
   <energy>
    <i name="e_fr_energy">   -168.87063323 </i>
    <i name="e_wo_entrp">   -168.86729823 </i>
    <i name="e_0_energy">   -168.86896573 </i>
   </energy>
  </scstep>
  <scstep>
   <time name="dav">    1.41    1.42</time>
   <time name="total">    1.72    1.74</time>
   <energy>
    <i name="e_fr_energy">   -168.85193394 </i>
    <i name="e_wo_entrp">   -168.84618985 </i>
    <i name="e_0_energy">   -168.84906189 </i>
   </energy>
  </scstep>
  <scstep>
   <time name="dav">    1.62    1.62</time>
   <time name="total">    1.90    1.92</time>
   <energy>
    <i name="e_fr_energy">   -168.85809506 </i>
    <i name="e_wo_entrp">   -168.85418495 </i>
    <i name="e_0_energy">   -168.85614001 </i>
   </energy>
  </scstep>
  <scstep>
   <time name="dav">    1.43    1.43</time>
   <time name="total">    1.72    1.73</time>
   <energy>
    <i name="e_fr_energy">   -168.86223967 </i>
    <i name="e_wo_entrp">   -168.85708899 </i>
    <i name="e_0_energy">   -168.85966433 </i>
   </energy>
  </scstep>
  <scstep>
   <time name="dav">    1.40    1.40</time>
   <time name="total">    1.70    1.72</time>
   <energy>
    <i name="e_fr_energy">   -168.85006847 </i>
    <i name="e_wo_entrp">   -168.84505138 </i>
    <i name="e_0_energy">   -168.84755992 </i>
   </energy>
  </scstep>
  <scstep>
   <time name="dav">    1.54    1.55</time>
   <time name="total">    1.83    1.86</time>
   <energy>
    <i name="e_fr_energy">   -168.85269663 </i>
    <i name="e_wo_entrp">   -168.84780140 </i>
    <i name="e_0_energy">   -168.85024902 </i>
   </energy>
  </scstep>
  <scstep>
   <time name="dav">    1.43    1.43</time>
   <time name="total">    1.72    1.74</time>
   <energy>
    <i name="e_fr_energy">   -168.85179412 </i>
    <i name="e_wo_entrp">   -168.84721532 </i>
    <i name="e_0_energy">   -168.84950472 </i>
   </energy>
  </scstep>
  <scstep>
   <time name="dav">    1.40    1.40</time>
   <time name="total">    1.69    1.71</time>
   <energy>
    <i name="e_fr_energy">   -168.85072718 </i>
    <i name="e_wo_entrp">   -168.84589616 </i>
    <i name="e_0_energy">   -168.84831167 </i>
   </energy>
  </scstep>
  <scstep>
   <time name="dav">    1.28    1.28</time>
   <time name="total">    1.58    1.59</time>
   <energy>
    <i name="e_fr_energy">   -168.85092348 </i>
    <i name="e_wo_entrp">   -168.84622832 </i>
    <i name="e_0_energy">   -168.84857590 </i>
   </energy>
  </scstep>
  <scstep>
   <time name="dav">    1.19    1.19</time>
   <time name="total">    1.40    1.43</time>
   <energy>
    <i name="alphaZ">    121.55789341 </i>
    <i name="ewald">  57541.15379805 </i>
    <i name="hartreedc"> -87803.44531641 </i>
    <i name="XCdc">    955.24054419 </i>
    <i name="pawpsdc">  34098.13964250 </i>
    <i name="pawaedc"> -36147.45100612 </i>
    <i name="eentropy">     -0.00480269 </i>
    <i name="bandstr">  -1633.08297269 </i>
    <i name="atom">  32699.04135762 </i>
    <i name="e_fr_energy">   -168.85086214 </i>
    <i name="e_wo_entrp">   -168.84605945 </i>
    <i name="e_0_energy">   -168.84846080 </i>
   </energy>
  </scstep>
  <structure>
   <crystal>
    <varray name="basis" >
     <v>      16.00000000       0.00000000       0.00000000 </v>
     <v>       0.00000000      16.00000000       0.00000000 </v>
     <v>       0.00000000       0.00000000      16.00000000 </v>
    </varray>
    <i name="volume">   4096.00000000 </i>
    <varray name="rec_basis" >
     <v>       0.06250000       0.00000000       0.00000000 </v>
     <v>       0.00000000       0.06250000       0.00000000 </v>
     <v>       0.00000000       0.00000000       0.06250000 </v>
    </varray>
   </crystal>
   <varray name="positions" >
    <v>       0.25667298       0.46168163       0.39188647 </v>
    <v>       0.51713723       0.46299554       0.65559810 </v>
    <v>       0.54213573       0.69203554       0.36643197 </v>
    <v>       0.56983344       0.28067113       0.34942523 </v>
    <v>       0.37158867       0.46456466       0.62347419 </v>
    <v>       0.65628540       0.63685127       0.44582159 </v>
    <v>       0.67759830       0.34476988       0.43319941 </v>
    <v>       0.31950435       0.58444897       0.35310784 </v>
    <v>       0.32123603       0.34046925       0.35480704 </v>
    <v>       0.36309263       0.47003326       0.25595850 </v>
    <v>       0.56248271       0.28128289       0.50149631 </v>
    <v>       0.53888776       0.68741307       0.51695215 </v>
    <v>       0.61067028       0.56500559       0.31787493 </v>
    <v>       0.65398024       0.41902124       0.30298701 </v>
    <v>       0.45162312       0.58462582       0.57516369 </v>
    <v>       0.44850523       0.33252202       0.59286208 </v>
    <v>       0.45659160       0.58869437       0.30415771 </v>
    <v>       0.44954404       0.34463812       0.29188367 </v>
    <v>       0.44163191       0.31646417       0.43733820 </v>
    <v>       0.41487274       0.65325889       0.44150295 </v>
    <v>       0.33556204       0.53757077       0.49549280 </v>
    <v>       0.33089850       0.38720563       0.50110613 </v>
    <v>       0.51768062       0.46520583       0.26175548 </v>
    <v>       0.60069490       0.55456044       0.56378769 </v>
    <v>       0.61262582       0.40786176       0.55186237 </v>
    <v>       0.66742221       0.49279213       0.43856662 </v>
    <v>       0.47253868       0.44853365       0.52066226 </v>
    <v>       0.52476728       0.55927691       0.43670910 </v>
    <v>       0.54971496       0.41277435       0.39900054 </v>
    <v>       0.40796166       0.46603406       0.38750506 </v>
    <v>       0.66757356       0.56599098       0.77085135 </v>
    <v>       0.61673700       0.48646286       0.75897725 </v>
    <v>       0.65050332       0.59534682       0.83128408 </v>
    <v>       0.65829203       0.61283844       0.72160767 </v>
    <v>       0.54698221       0.50497562       0.75387793 </v>
    <v>       0.62682562       0.44083826       0.80369466 </v>
    <v>       0.73483677       0.55113744       0.77375200 </v>
    <v>       0.63313458       0.45581952       0.69421828 </v>
   </varray>
  </structure>
  <varray name="forces" >
   <v>      -0.02318356      -0.00575298       0.00127233 </v>
   <v>       0.26126483       0.21220392       0.02692355 </v>
   <v>       0.01681327       0.00640018       0.03458876 </v>
   <v>       0.00618212       0.00956516       0.02114028 </v>
   <v>      -0.02847357      -0.02706550      -0.04290325 </v>
   <v>       0.02605781       0.01502122       0.00847464 </v>
   <v>       0.09943479      -0.02617396      -0.00841808 </v>
   <v>       0.04731335      -0.08115875       0.03271958 </v>
   <v>       0.02046353       0.03729648       0.01925671 </v>
   <v>      -0.01055225       0.00412306      -0.07491018 </v>
   <v>       0.00096664      -0.05207369      -0.02426699 </v>
   <v>      -0.03266522       0.06670116      -0.01810386 </v>
   <v>      -0.01842715      -0.03148519       0.03600130 </v>
   <v>      -0.01147134      -0.01013984       0.08025229 </v>
   <v>       0.03327639       0.00206262       0.09803174 </v>
   <v>       0.00330687      -0.16918270      -0.04958797 </v>
   <v>       0.04065622       0.01172860      -0.00517815 </v>
   <v>      -0.01118178      -0.01291752      -0.00749890 </v>
   <v>       0.00366128      -0.01138260      -0.01418552 </v>
   <v>       0.00015364      -0.01384498       0.03059821 </v>
   <v>       0.01259678       0.05075249       0.01749566 </v>
   <v>       0.06309148       0.01628691       0.03319195 </v>
   <v>      -0.00689375      -0.02063979       0.01148614 </v>
   <v>      -0.03960414       0.06251465      -0.36120692 </v>
   <v>      -0.18136824       0.00328574      -0.29969845 </v>
   <v>       0.01403749      -0.03586589       0.13739581 </v>
   <v>      -0.02159376      -0.00593452      -0.09982448 </v>
   <v>      -0.05328001      -0.03973152      -0.03513442 </v>
   <v>      -0.08095389       0.03452008      -0.04001107 </v>
   <v>      -0.02117147       0.02364397       0.04208226 </v>
   <v>       0.16584442      -0.06058181       0.62297636 </v>
   <v>      -0.70698477       1.47795155      -3.14050053 </v>
   <v>       0.09859284      -0.01174630      -0.23324388 </v>
   <v>      -0.11502278      -0.05777798      -0.13496289 </v>
   <v>       0.43335918      -0.16508150       0.70765884 </v>
   <v>       0.10080359      -1.57793101       1.73338899 </v>
   <v>      -0.07527480       0.04502820      -0.03191495 </v>
   <v>      -0.00977403       0.33738201       0.92661506 </v>
  </varray>
  <varray name="stress" >
   <v>      -1.15582356       0.07333819       0.06980555 </v>
   <v>       0.07333818      -0.23300582      -0.37730439 </v>
   <v>       0.06980558      -0.37730440      -0.35855568 </v>
  </varray>
  <energy>
   <i name="e_fr_energy">   -168.85086214 </i>
   <i name="e_wo_entrp">   -168.84605945 </i>
   <i name="e_0_energy">   -168.84846080 </i>
  </energy>
  <time name="totalsc">   26.02   26.30</time>
 </calculation>
 <calculation>
  <scstep>
   <time name="dav">    1.29    1.30</time>
   <time name="total">    1.58    1.58</time>
   <energy>
    <i name="alphaZ">    121.55789341 </i>
    <i name="ewald">  57502.01964640 </i>
    <i name="hartreedc"> -87764.58325795 </i>
    <i name="XCdc">    955.21256688 </i>
    <i name="pawpsdc">  34098.13294873 </i>
    <i name="pawaedc"> -36147.43875653 </i>
    <i name="eentropy">     -0.00533601 </i>
    <i name="bandstr">  -1632.84151100 </i>
    <i name="atom">  32699.04135762 </i>
    <i name="e_fr_energy">   -168.90444846 </i>
    <i name="e_wo_entrp">   -168.89911245 </i>
    <i name="e_0_energy">   -168.90178046 </i>
   </energy>
  </scstep>
  <scstep>
   <time name="dav">    1.69    1.70</time>
   <time name="total">    1.98    2.00</time>
   <energy>
    <i name="e_fr_energy">   -168.94479908 </i>
    <i name="e_wo_entrp">   -168.93971605 </i>
    <i name="e_0_energy">   -168.94225757 </i>
   </energy>
  </scstep>
  <scstep>
   <time name="dav">    1.40    1.41</time>
   <time name="total">    1.70    1.71</time>
   <energy>
    <i name="e_fr_energy">   -168.91263560 </i>
    <i name="e_wo_entrp">   -168.90709247 </i>
    <i name="e_0_energy">   -168.90986403 </i>
   </energy>
  </scstep>
  <scstep>
   <time name="dav">    1.68    1.68</time>
   <time name="total">    1.96    1.98</time>
   <energy>
    <i name="e_fr_energy">   -168.91918128 </i>
    <i name="e_wo_entrp">   -168.91385383 </i>
    <i name="e_0_energy">   -168.91651755 </i>
   </energy>
  </scstep>
  <scstep>
   <time name="dav">    1.39    1.40</time>
   <time name="total">    1.68    1.71</time>
   <energy>
    <i name="e_fr_energy">   -168.91579995 </i>
    <i name="e_wo_entrp">   -168.90948556 </i>
    <i name="e_0_energy">   -168.91264275 </i>
   </energy>
  </scstep>
  <scstep>
   <time name="dav">    1.38    1.39</time>
   <time name="total">    1.67    1.69</time>
   <energy>
    <i name="e_fr_energy">   -168.91347659 </i>
    <i name="e_wo_entrp">   -168.90840108 </i>
    <i name="e_0_energy">   -168.91093884 </i>
   </energy>
  </scstep>
  <scstep>
   <time name="dav">    1.67    1.67</time>
   <time name="total">    1.97    1.99</time>
   <energy>
    <i name="e_fr_energy">   -168.91605552 </i>
    <i name="e_wo_entrp">   -168.90990108 </i>
    <i name="e_0_energy">   -168.91297830 </i>
   </energy>
  </scstep>
  <scstep>
   <time name="dav">    1.44    1.45</time>
   <time name="total">    1.75    1.77</time>
   <energy>
    <i name="e_fr_energy">   -168.91465523 </i>
    <i name="e_wo_entrp">   -168.90911993 </i>
    <i name="e_0_energy">   -168.91188758 </i>
   </energy>
  </scstep>
  <scstep>
   <time name="dav">    1.41    1.41</time>
   <time name="total">    1.70    1.72</time>
   <energy>
    <i name="e_fr_energy">   -168.91333316 </i>
    <i name="e_wo_entrp">   -168.90800125 </i>
    <i name="e_0_energy">   -168.91066721 </i>
   </energy>
  </scstep>
  <scstep>
   <time name="dav">    1.44    1.45</time>
   <time name="total">    1.74    1.75</time>
   <energy>
    <i name="e_fr_energy">   -168.91380512 </i>
    <i name="e_wo_entrp">   -168.90843071 </i>
    <i name="e_0_energy">   -168.91111792 </i>
   </energy>
  </scstep>
  <scstep>
   <time name="dav">    1.32    1.32</time>
   <time name="total">    1.60    1.62</time>
   <energy>
    <i name="e_fr_energy">   -168.91339819 </i>
    <i name="e_wo_entrp">   -168.90793514 </i>
    <i name="e_0_energy">   -168.91066667 </i>
   </energy>
  </scstep>
  <scstep>
   <time name="dav">    0.97    0.97</time>
   <time name="total">    1.20    1.21</time>
   <energy>
    <i name="alphaZ">    121.55789341 </i>
    <i name="ewald">  57502.01964640 </i>
    <i name="hartreedc"> -87764.96444529 </i>
    <i name="XCdc">    955.22382325 </i>
    <i name="pawpsdc">  34087.10101710 </i>
    <i name="pawaedc"> -36136.27669295 </i>
    <i name="eentropy">     -0.00539161 </i>
    <i name="bandstr">  -1632.61061034 </i>
    <i name="atom">  32699.04135762 </i>
    <i name="e_fr_energy">   -168.91340241 </i>
    <i name="e_wo_entrp">   -168.90801080 </i>
    <i name="e_0_energy">   -168.91070661 </i>
   </energy>
  </scstep>
  <structure>
   <crystal>
    <varray name="basis" >
     <v>      16.00000000       0.00000000       0.00000000 </v>
     <v>       0.00000000      16.00000000       0.00000000 </v>
     <v>       0.00000000       0.00000000      16.00000000 </v>
    </varray>
    <i name="volume">   4096.00000000 </i>
    <varray name="rec_basis" >
     <v>       0.06250000       0.00000000       0.00000000 </v>
     <v>       0.00000000       0.06250000       0.00000000 </v>
     <v>       0.00000000       0.00000000       0.06250000 </v>
    </varray>
   </crystal>
   <varray name="positions" >
    <v>       0.25673320       0.46163210       0.39192842 </v>
    <v>       0.51724978       0.46279234       0.65632757 </v>
    <v>       0.54210210       0.69198273       0.36638579 </v>
    <v>       0.56984147       0.28067381       0.34940468 </v>
    <v>       0.37150811       0.46462965       0.62363021 </v>
    <v>       0.65627587       0.63686002       0.44574522 </v>
    <v>       0.67742038       0.34478687       0.43315355 </v>
    <v>       0.31943720       0.58463050       0.35302358 </v>
    <v>       0.32117510       0.34042697       0.35480755 </v>
    <v>       0.36311009       0.47002736       0.25607221 </v>
    <v>       0.56248699       0.28128037       0.50150154 </v>
    <v>       0.53889757       0.68733892       0.51698911 </v>
    <v>       0.61071249       0.56503452       0.31788372 </v>
    <v>       0.65399269       0.41904432       0.30288737 </v>
    <v>       0.45151362       0.58473553       0.57498792 </v>
    <v>       0.44846775       0.33264226       0.59299661 </v>
    <v>       0.45652953       0.58870021       0.30419528 </v>
    <v>       0.44957398       0.34463900       0.29187553 </v>
    <v>       0.44160970       0.31649347       0.43735802 </v>
    <v>       0.41491264       0.65326000       0.44145105 </v>
    <v>       0.33555232       0.53745273       0.49546170 </v>
    <v>       0.33076925       0.38719073       0.50096368 </v>
    <v>       0.51771479       0.46523318       0.26169656 </v>
    <v>       0.60087629       0.55442737       0.56461225 </v>
    <v>       0.61304653       0.40786240       0.55250253 </v>
    <v>       0.66742410       0.49285918       0.43818391 </v>
    <v>       0.47240526       0.44864583       0.52013587 </v>
    <v>       0.52469292       0.55932975       0.43663915 </v>
    <v>       0.54989953       0.41271128       0.39912089 </v>
    <v>       0.40800148       0.46600150       0.38761921 </v>
    <v>       0.66768222       0.56604943       0.77115899 </v>
    <v>       0.61641973       0.48702206       0.75738757 </v>
    <v>       0.65054732       0.59532951       0.83124430 </v>
    <v>       0.65828908       0.61268324       0.72169342 </v>
    <v>       0.54720253       0.50465550       0.75243559 </v>
    <v>       0.62764929       0.44015280       0.80436449 </v>
    <v>       0.73484421       0.55119410       0.77375558 </v>
    <v>       0.63205907       0.45626129       0.69505969 </v>
   </varray>
  </structure>
  <varray name="forces" >
   <v>      -0.03219829       0.01325356      -0.01354898 </v>
   <v>       0.10651745       0.18328822      -0.21717653 </v>
   <v>       0.02042093       0.02421666       0.03253577 </v>
   <v>       0.00032396       0.00372601       0.01792662 </v>
   <v>       0.01244699      -0.03574910      -0.07448452 </v>
   <v>       0.01984335       0.00749379       0.02907291 </v>
   <v>       0.11104291      -0.01981793       0.01087955 </v>
   <v>       0.04988995      -0.10699025       0.04659025 </v>
   <v>       0.02997739       0.03076482       0.00786606 </v>
   <v>      -0.01147596       0.00378601      -0.07804928 </v>
   <v>      -0.00080165      -0.02520095      -0.01677133 </v>
   <v>      -0.02078221       0.05966798      -0.02365519 </v>
   <v>      -0.02122327      -0.02352951       0.01351650 </v>
   <v>      -0.01024770      -0.01352806       0.07593197 </v>
   <v>       0.05483268      -0.03678591       0.10826998 </v>
   <v>       0.01542405      -0.12939430      -0.07180432 </v>
   <v>       0.04352998       0.00602217      -0.01619120 </v>
   <v>      -0.01627636      -0.00975521      -0.00390160 </v>
   <v>       0.00910740      -0.01750367      -0.01444603 </v>
   <v>      -0.01369511      -0.00546970       0.03339099 </v>
   <v>       0.01045144       0.06660330       0.01910260 </v>
   <v>       0.07868790       0.01460706       0.06308549 </v>
   <v>      -0.01648268      -0.02019117       0.02761876 </v>
   <v>      -0.08167156       0.07863990      -0.46821611 </v>
   <v>      -0.23939434       0.00149776      -0.37524484 </v>
   <v>       0.00352047      -0.04103417       0.20063549 </v>
   <v>       0.03399559      -0.03890288       0.12625993 </v>
   <v>      -0.00258507      -0.03704798       0.00514876 </v>
   <v>      -0.10514524       0.03872760      -0.06260506 </v>
   <v>      -0.02451136       0.02588920      -0.01364968 </v>
   <v>       0.05205346      -0.04384995       0.23438956 </v>
   <v>      -0.23827469       0.37676097      -1.08358963 </v>
   <v>       0.03835785      -0.00195979      -0.11182128 </v>
   <v>      -0.06040247       0.02085888      -0.10090396 </v>
   <v>       0.16573552       0.01198629       0.84808638 </v>
   <v>      -0.24422172      -0.45416711       0.56576084 </v>
   <v>      -0.04228384       0.00418680      -0.01740384 </v>
   <v>       0.32551427       0.08890065       0.29739497 </v>
  </varray>
  <varray name="stress" >
   <v>      -1.10168973       0.02946963      -0.13804784 </v>
   <v>       0.02946963      -0.48533508       0.02312978 </v>
   <v>      -0.13804784       0.02312978      -0.45936380 </v>
  </varray>
  <energy>
   <i name="e_fr_energy">   -168.91340241 </i>
   <i name="e_wo_entrp">   -168.90801080 </i>
   <i name="e_0_energy">   -168.91070661 </i>
  </energy>
  <time name="totalsc">   22.47   22.71</time>
 </calculation>
 <calculation>
  <scstep>
   <time name="dav">    1.30    1.31</time>
   <time name="total">    1.59    1.59</time>
   <energy>
    <i name="alphaZ">    121.55789341 </i>
    <i name="ewald">  57616.45193438 </i>
    <i name="hartreedc"> -87879.20189316 </i>
    <i name="XCdc">    955.30970541 </i>
    <i name="pawpsdc">  34087.03284356 </i>
    <i name="pawaedc"> -36136.20634289 </i>
    <i name="eentropy">     -0.00416062 </i>
    <i name="bandstr">  -1632.95673407 </i>
    <i name="atom">  32699.04135762 </i>
    <i name="e_fr_energy">   -168.97539636 </i>
    <i name="e_wo_entrp">   -168.97123574 </i>
    <i name="e_0_energy">   -168.97331605 </i>
   </energy>
  </scstep>
  <scstep>
   <time name="dav">    1.49    1.49</time>
   <time name="total">    1.78    1.79</time>
   <energy>
    <i name="e_fr_energy">   -169.28468656 </i>
    <i name="e_wo_entrp">   -169.27874501 </i>
    <i name="e_0_energy">   -169.28171579 </i>
   </energy>
  </scstep>
  <scstep>
   <time name="dav">    1.38    1.38</time>
   <time name="total">    1.67    1.69</time>
   <energy>
    <i name="e_fr_energy">   -169.01351533 </i>
    <i name="e_wo_entrp">   -169.01017578 </i>
    <i name="e_0_energy">   -169.01184555 </i>
   </energy>
  </scstep>
  <scstep>
   <time name="dav">    1.60    1.60</time>
   <time name="total">    1.88    1.90</time>
   <energy>
    <i name="e_fr_energy">   -169.00674364 </i>
    <i name="e_wo_entrp">   -169.00213243 </i>
    <i name="e_0_energy">   -169.00443804 </i>
   </energy>
  </scstep>
  <scstep>
   <time name="dav">    1.47    1.48</time>
   <time name="total">    1.76    1.78</time>
   <energy>
    <i name="e_fr_energy">   -169.02137828 </i>
    <i name="e_wo_entrp">   -169.01893301 </i>
    <i name="e_0_energy">   -169.02015565 </i>
   </energy>
  </scstep>
  <scstep>
   <time name="dav">    1.37    1.37</time>
   <time name="total">    1.65    1.68</time>
   <energy>
    <i name="e_fr_energy">   -169.00618572 </i>
    <i name="e_wo_entrp">   -169.00185940 </i>
    <i name="e_0_energy">   -169.00402256 </i>
   </energy>
  </scstep>
  <scstep>
   <time name="dav">    1.49    1.50</time>
   <time name="total">    1.78    1.80</time>
   <energy>
    <i name="e_fr_energy">   -169.00773353 </i>
    <i name="e_wo_entrp">   -169.00432821 </i>
    <i name="e_0_energy">   -169.00603087 </i>
   </energy>
  </scstep>
  <scstep>
   <time name="dav">    1.50    1.50</time>
   <time name="total">    1.78    1.80</time>
   <energy>
    <i name="e_fr_energy">   -169.01102299 </i>
    <i name="e_wo_entrp">   -169.00699301 </i>
    <i name="e_0_energy">   -169.00900800 </i>
   </energy>
  </scstep>
  <scstep>
   <time name="dav">    1.40    1.41</time>
   <time name="total">    1.69    1.71</time>
   <energy>
    <i name="e_fr_energy">   -169.00695308 </i>
    <i name="e_wo_entrp">   -169.00322982 </i>
    <i name="e_0_energy">   -169.00509145 </i>
   </energy>
  </scstep>
  <scstep>
   <time name="dav">    1.42    1.42</time>
   <time name="total">    1.72    1.73</time>
   <energy>
    <i name="e_fr_energy">   -169.00787418 </i>
    <i name="e_wo_entrp">   -169.00413345 </i>
    <i name="e_0_energy">   -169.00600382 </i>
   </energy>
  </scstep>
  <scstep>
   <time name="dav">    1.44    1.44</time>
   <time name="total">    1.73    1.74</time>
   <energy>
    <i name="e_fr_energy">   -169.00814455 </i>
    <i name="e_wo_entrp">   -169.00456512 </i>
    <i name="e_0_energy">   -169.00635483 </i>
   </energy>
  </scstep>
  <scstep>
   <time name="dav">    1.41    1.41</time>
   <time name="total">    1.70    1.72</time>
   <energy>
    <i name="e_fr_energy">   -169.00669597 </i>
    <i name="e_wo_entrp">   -169.00299629 </i>
    <i name="e_0_energy">   -169.00484613 </i>
   </energy>
  </scstep>
  <scstep>
   <time name="dav">    1.25    1.26</time>
   <time name="total">    1.54    1.56</time>
   <energy>
    <i name="e_fr_energy">   -169.00683584 </i>
    <i name="e_wo_entrp">   -169.00319992 </i>
    <i name="e_0_energy">   -169.00501788 </i>
   </energy>
  </scstep>
  <scstep>
   <time name="dav">    1.03    1.03</time>
   <time name="total">    1.25    1.27</time>
   <energy>
    <i name="alphaZ">    121.55789341 </i>
    <i name="ewald">  57616.45193438 </i>
    <i name="hartreedc"> -87878.92072512 </i>
    <i name="XCdc">    955.25863597 </i>
    <i name="pawpsdc">  34106.95362878 </i>
    <i name="pawaedc"> -36156.46872154 </i>
    <i name="eentropy">     -0.00371562 </i>
    <i name="bandstr">  -1632.87709407 </i>
    <i name="atom">  32699.04135762 </i>
    <i name="e_fr_energy">   -169.00680620 </i>
    <i name="e_wo_entrp">   -169.00309058 </i>
    <i name="e_0_energy">   -169.00494839 </i>
   </energy>
  </scstep>
  <structure>
   <crystal>
    <varray name="basis" >
     <v>      16.00000000       0.00000000       0.00000000 </v>
     <v>       0.00000000      16.00000000       0.00000000 </v>
     <v>       0.00000000       0.00000000      16.00000000 </v>
    </varray>
    <i name="volume">   4096.00000000 </i>
    <varray name="rec_basis" >
     <v>       0.06250000       0.00000000       0.00000000 </v>
     <v>       0.00000000       0.06250000       0.00000000 </v>
     <v>       0.00000000       0.00000000       0.06250000 </v>
    </varray>
   </crystal>
   <varray name="positions" >
    <v>       0.25657546       0.46172650       0.39184225 </v>
    <v>       0.51740020       0.46352396       0.65487848 </v>
    <v>       0.54219670       0.69211033       0.36652771 </v>
    <v>       0.56983277       0.28068057       0.34947704 </v>
    <v>       0.37163732       0.46445675       0.62324540 </v>
    <v>       0.65634023       0.63686961       0.44591386 </v>
    <v>       0.67792892       0.34471370       0.43323724 </v>
    <v>       0.31965045       0.58412848       0.35324839 </v>
    <v>       0.32132775       0.34055951       0.35482795 </v>
    <v>       0.36305864       0.47004450       0.25572828 </v>
    <v>       0.56247975       0.28121606       0.50145052 </v>
    <v>       0.53883038       0.68758662       0.51688190 </v>
    <v>       0.61060552       0.56493722       0.31790935 </v>
    <v>       0.65395049       0.41898070       0.30320888 </v>
    <v>       0.45179052       0.58450658       0.57548650 </v>
    <v>       0.44855360       0.33215342       0.59264457 </v>
    <v>       0.45671973       0.58870934       0.30410728 </v>
    <v>       0.44949484       0.34461190       0.29187481 </v>
    <v>       0.44166048       0.31641181       0.43729583 </v>
    <v>       0.41482853       0.65324408       0.44160207 </v>
    <v>       0.33559181       0.53777124       0.49554977 </v>
    <v>       0.33113339       0.38724749       0.50130188 </v>
    <v>       0.51763006       0.46514666       0.26184052 </v>
    <v>       0.60044206       0.55479594       0.56237938 </v>
    <v>       0.61190594       0.40786563       0.55073765 </v>
    <v>       0.66743125       0.49266971       0.43917572 </v>
    <v>       0.47265500       0.44840828       0.52110020 </v>
    <v>       0.52477461       0.55916785       0.43673624 </v>
    <v>       0.54939881       0.41288985       0.39881031 </v>
    <v>       0.40788858       0.46610944       0.38744677 </v>
    <v>       0.66769180       0.56586268       0.77141852 </v>
    <v>       0.61616130       0.48736216       0.75638726 </v>
    <v>       0.65059736       0.59534490       0.83099302 </v>
    <v>       0.65813126       0.61292385       0.72132176 </v>
    <v>       0.54738272       0.50506889       0.75641903 </v>
    <v>       0.62601575       0.43975638       0.80507758 </v>
    <v>       0.73472241       0.55113778       0.77370483 </v>
    <v>       0.63420977       0.45597245       0.69485161 </v>
   </varray>
  </structure>
  <varray name="forces" >
   <v>      -0.01263162      -0.02949411       0.02253781 </v>
   <v>       0.26218784       0.25889323       0.15385473 </v>
   <v>       0.01117078      -0.00796943       0.02830969 </v>
   <v>       0.01335323       0.02336497       0.02505105 </v>
   <v>      -0.04876527      -0.01792176       0.00802030 </v>
   <v>       0.04392854       0.03340402      -0.02360329 </v>
   <v>       0.07699724      -0.03523383      -0.03690183 </v>
   <v>       0.04905594      -0.04939070       0.01347559 </v>
   <v>       0.00415009       0.03764029       0.02889820 </v>
   <v>      -0.00545202       0.00112586      -0.05661719 </v>
   <v>       0.00616413      -0.08585728      -0.03650079 </v>
   <v>      -0.04315973       0.07206791      -0.01582415 </v>
   <v>      -0.00277283      -0.03540351       0.05579724 </v>
   <v>      -0.00497497      -0.00814098       0.07599365 </v>
   <v>       0.00235472       0.03522290       0.06794500 </v>
   <v>       0.00050369      -0.16746860      -0.02954494 </v>
   <v>       0.03548117       0.02173409       0.00165966 </v>
   <v>      -0.00655140      -0.01788426      -0.01193766 </v>
   <v>      -0.00438192      -0.01013430      -0.01618974 </v>
   <v>       0.01674017      -0.01996978       0.02522686 </v>
   <v>       0.01138815       0.02721749       0.02064514 </v>
   <v>       0.03574364       0.01077490      -0.00458494 </v>
   <v>       0.00178138      -0.01823212      -0.00144934 </v>
   <v>       0.01655105       0.04841379      -0.20131165 </v>
   <v>      -0.11868664      -0.01113664      -0.22239626 </v>
   <v>       0.03068381      -0.02269861       0.02577098 </v>
   <v>      -0.10918539       0.01881338      -0.27974558 </v>
[...]
        <r>  0.0000  0.0020  0.0014 </r>
        <r>  0.0011  0.0012  0.0021 </r>
        <r>  0.0001  0.0023  0.0003 </r>
        <r>  0.0008  0.0019  0.0008 </r>
        <r>  0.0002  0.0073  0.0021 </r>
        <r>  0.0002  0.0103  0.0006 </r>
        <r>  0.0000  0.0070  0.0006 </r>
        <r>  0.0001  0.0072  0.0015 </r>
        <r>  0.0019  0.0003  0.0026 </r>
        <r>  0.0003  0.0001  0.0080 </r>
        <r>  0.0001  0.0033  0.0060 </r>
        <r>  0.0001  0.0018  0.0019 </r>
        <r>  0.0001  0.0015  0.0000 </r>
        <r>  0.0009  0.0005  0.0000 </r>
        <r>  0.0001  0.0002  0.0000 </r>
        <r>  0.0000  0.0001  0.0000 </r>
        <r>  0.0000  0.0001  0.0000 </r>
        <r>  0.0001  0.0003  0.0000 </r>
        <r>  0.0000  0.0001  0.0000 </r>
        <r>  0.0000  0.0001  0.0000 </r>
       </set>
       <set comment="band 199">
        <r>  0.0002  0.0034  0.0009 </r>
        <r>  0.0001  0.0066  0.0001 </r>
        <r>  0.0034  0.0076  0.0006 </r>
        <r>  0.0001  0.0007  0.0005 </r>
        <r>  0.0001  0.0045  0.0024 </r>
        <r>  0.0010  0.0032  0.0016 </r>
        <r>  0.0028  0.0040  0.0004 </r>
        <r>  0.0000  0.0032  0.0041 </r>
        <r>  0.0014  0.0039  0.0014 </r>
        <r>  0.0097  0.0055  0.0011 </r>
        <r>  0.0001  0.0024  0.0010 </r>
        <r>  0.0004  0.0029  0.0003 </r>
        <r>  0.0001  0.0008  0.0017 </r>
        <r>  0.0010  0.0039  0.0028 </r>
        <r>  0.0006  0.0017  0.0003 </r>
        <r>  0.0004  0.0024  0.0005 </r>
        <r>  0.0001  0.0020  0.0020 </r>
        <r>  0.0000  0.0002  0.0022 </r>
        <r>  0.0010  0.0012  0.0021 </r>
        <r>  0.0001  0.0019  0.0040 </r>
        <r>  0.0012  0.0037  0.0007 </r>
        <r>  0.0000  0.0026  0.0005 </r>
        <r>  0.0024  0.0007  0.0015 </r>
        <r>  0.0003  0.0028  0.0021 </r>
        <r>  0.0001  0.0017  0.0013 </r>
        <r>  0.0002  0.0037  0.0005 </r>
        <r>  0.0001  0.0006  0.0029 </r>
        <r>  0.0000  0.0019  0.0022 </r>
        <r>  0.0008  0.0010  0.0017 </r>
        <r>  0.0013  0.0005  0.0023 </r>
        <r>  0.0000  0.0051  0.0000 </r>
        <r>  0.0001  0.0001  0.0000 </r>
        <r>  0.0000  0.0004  0.0000 </r>
        <r>  0.0000  0.0001  0.0000 </r>
        <r>  0.0001  0.0001  0.0000 </r>
        <r>  0.0002  0.0002  0.0000 </r>
        <r>  0.0001  0.0005  0.0000 </r>
        <r>  0.0001  0.0002  0.0000 </r>
       </set>
       <set comment="band 200">
        <r>  0.0005  0.0049  0.0005 </r>
        <r>  0.0015  0.0041  0.0012 </r>
        <r>  0.0001  0.0003  0.0016 </r>
        <r>  0.0001  0.0005  0.0004 </r>
        <r>  0.0001  0.0027  0.0042 </r>
        <r>  0.0009  0.0021  0.0008 </r>
        <r>  0.0006  0.0061  0.0031 </r>
        <r>  0.0014  0.0010  0.0016 </r>
        <r>  0.0006  0.0025  0.0012 </r>
        <r>  0.0019  0.0025  0.0039 </r>
        <r>  0.0010  0.0029  0.0018 </r>
        <r>  0.0000  0.0007  0.0008 </r>
        <r>  0.0011  0.0014  0.0045 </r>
        <r>  0.0000  0.0038  0.0054 </r>
        <r>  0.0000  0.0026  0.0011 </r>
        <r>  0.0000  0.0045  0.0010 </r>
        <r>  0.0001  0.0045  0.0018 </r>
        <r>  0.0000  0.0025  0.0014 </r>
        <r>  0.0001  0.0027  0.0010 </r>
        <r>  0.0000  0.0012  0.0008 </r>
        <r>  0.0010  0.0006  0.0007 </r>
        <r>  0.0015  0.0015  0.0006 </r>
        <r>  0.0013  0.0052  0.0008 </r>
        <r>  0.0000  0.0047  0.0018 </r>
        <r>  0.0020  0.0062  0.0022 </r>
        <r>  0.0005  0.0026  0.0008 </r>
        <r>  0.0053  0.0016  0.0037 </r>
        <r>  0.0008  0.0037  0.0020 </r>
        <r>  0.0001  0.0006  0.0077 </r>
        <r>  0.0001  0.0042  0.0025 </r>
        <r>  0.0001  0.0017  0.0000 </r>
        <r>  0.0003  0.0009  0.0000 </r>
        <r>  0.0001  0.0001  0.0000 </r>
        <r>  0.0001  0.0000  0.0000 </r>
        <r>  0.0001  0.0002  0.0000 </r>
        <r>  0.0000  0.0001  0.0000 </r>
        <r>  0.0001  0.0003  0.0000 </r>
        <r>  0.0006  0.0002  0.0000 </r>
       </set>
       <set comment="band 201">
        <r>  0.0006  0.0029  0.0007 </r>
        <r>  0.0003  0.0051  0.0019 </r>
        <r>  0.0006  0.0036  0.0033 </r>
        <r>  0.0054  0.0027  0.0007 </r>
        <r>  0.0000  0.0016  0.0009 </r>
        <r>  0.0001  0.0022  0.0017 </r>
        <r>  0.0000  0.0015  0.0026 </r>
        <r>  0.0008  0.0002  0.0037 </r>
        <r>  0.0001  0.0007  0.0023 </r>
        <r>  0.0004  0.0026  0.0003 </r>
        <r>  0.0003  0.0010  0.0033 </r>
        <r>  0.0000  0.0017  0.0025 </r>
        <r>  0.0010  0.0021  0.0010 </r>
        <r>  0.0001  0.0026  0.0019 </r>
        <r>  0.0002  0.0028  0.0005 </r>
        <r>  0.0012  0.0081  0.0013 </r>
        <r>  0.0011  0.0047  0.0002 </r>
        <r>  0.0005  0.0003  0.0008 </r>
        <r>  0.0036  0.0004  0.0006 </r>
        <r>  0.0006  0.0042  0.0034 </r>
        <r>  0.0001  0.0051  0.0028 </r>
        <r>  0.0005  0.0040  0.0023 </r>
        <r>  0.0000  0.0039  0.0004 </r>
        <r>  0.0002  0.0006  0.0024 </r>
        <r>  0.0002  0.0039  0.0014 </r>
        <r>  0.0003  0.0005  0.0003 </r>
        <r>  0.0001  0.0060  0.0016 </r>
        <r>  0.0000  0.0010  0.0046 </r>
        <r>  0.0003  0.0013  0.0030 </r>
        <r>  0.0049  0.0024  0.0024 </r>
        <r>  0.0018  0.0025  0.0000 </r>
        <r>  0.0007  0.0021  0.0000 </r>
        <r>  0.0001  0.0000  0.0000 </r>
        <r>  0.0000  0.0004  0.0000 </r>
        <r>  0.0000  0.0001  0.0000 </r>
        <r>  0.0000  0.0006  0.0000 </r>
        <r>  0.0001  0.0006  0.0000 </r>
        <r>  0.0001  0.0002  0.0000 </r>
       </set>
       <set comment="band 202">
        <r>  0.0001  0.0013  0.0035 </r>
        <r>  0.0009  0.0052  0.0040 </r>
        <r>  0.0000  0.0053  0.0014 </r>
        <r>  0.0002  0.0032  0.0041 </r>
        <r>  0.0060  0.0040  0.0036 </r>
        <r>  0.0030  0.0030  0.0010 </r>
        <r>  0.0044  0.0156  0.0047 </r>
        <r>  0.0009  0.0040  0.0035 </r>
        <r>  0.0006  0.0009  0.0009 </r>
        <r>  0.0012  0.0094  0.0025 </r>
        <r>  0.0023  0.0038  0.0045 </r>
        <r>  0.0033  0.0045  0.0027 </r>
        <r>  0.0008  0.0038  0.0029 </r>
        <r>  0.0030  0.0058  0.0024 </r>
        <r>  0.0000  0.0060  0.0033 </r>
        <r>  0.0084  0.0077  0.0048 </r>
        <r>  0.0000  0.0003  0.0005 </r>
        <r>  0.0001  0.0098  0.0011 </r>
        <r>  0.0000  0.0032  0.0041 </r>
        <r>  0.0012  0.0072  0.0032 </r>
        <r>  0.0016  0.0040  0.0009 </r>
        <r>  0.0005  0.0026  0.0022 </r>
        <r>  0.0007  0.0089  0.0003 </r>
        <r>  0.0009  0.0014  0.0071 </r>
        <r>  0.0003  0.0032  0.0051 </r>
        <r>  0.0021  0.0029  0.0006 </r>
        <r>  0.0001  0.0033  0.0016 </r>
        <r>  0.0004  0.0024  0.0010 </r>
        <r>  0.0005  0.0013  0.0041 </r>
        <r>  0.0001  0.0003  0.0042 </r>
        <r>  0.0008  0.0022  0.0000 </r>
        <r>  0.0021  0.0038  0.0000 </r>
        <r>  0.0000  0.0006  0.0000 </r>
        <r>  0.0000  0.0000  0.0000 </r>
        <r>  0.0002  0.0002  0.0000 </r>
        <r>  0.0004  0.0000  0.0000 </r>
        <r>  0.0000  0.0001  0.0000 </r>
        <r>  0.0006  0.0014  0.0000 </r>
       </set>
       <set comment="band 203">
        <r>  0.0002  0.0080  0.0017 </r>
        <r>  0.0001  0.0005  0.0010 </r>
        <r>  0.0006  0.0004  0.0015 </r>
        <r>  0.0001  0.0030  0.0011 </r>
        <r>  0.0028  0.0051  0.0013 </r>
        <r>  0.0003  0.0019  0.0006 </r>
        <r>  0.0002  0.0037  0.0027 </r>
        <r>  0.0017  0.0003  0.0022 </r>
        <r>  0.0025  0.0014  0.0023 </r>
        <r>  0.0039  0.0006  0.0002 </r>
        <r>  0.0008  0.0096  0.0008 </r>
        <r>  0.0031  0.0061  0.0002 </r>
        <r>  0.0001  0.0020  0.0033 </r>
        <r>  0.0031  0.0106  0.0011 </r>
        <r>  0.0004  0.0029  0.0014 </r>
        <r>  0.0001  0.0016  0.0022 </r>
        <r>  0.0000  0.0012  0.0011 </r>
        <r>  0.0000  0.0017  0.0026 </r>
        <r>  0.0001  0.0012  0.0010 </r>
        <r>  0.0001  0.0022  0.0037 </r>
        <r>  0.0002  0.0042  0.0018 </r>
        <r>  0.0000  0.0029  0.0016 </r>
        <r>  0.0015  0.0010  0.0033 </r>
        <r>  0.0001  0.0026  0.0010 </r>
        <r>  0.0007  0.0038  0.0015 </r>
        <r>  0.0007  0.0009  0.0019 </r>
        <r>  0.0003  0.0006  0.0027 </r>
        <r>  0.0004  0.0018  0.0008 </r>
        <r>  0.0007  0.0026  0.0028 </r>
        <r>  0.0000  0.0038  0.0028 </r>
        <r>  0.0000  0.0012  0.0000 </r>
        <r>  0.0002  0.0002  0.0000 </r>
        <r>  0.0000  0.0000  0.0000 </r>
        <r>  0.0000  0.0001  0.0000 </r>
        <r>  0.0002  0.0001  0.0000 </r>
        <r>  0.0001  0.0000  0.0000 </r>
        <r>  0.0000  0.0002  0.0000 </r>
        <r>  0.0000  0.0001  0.0000 </r>
       </set>
       <set comment="band 204">
        <r>  0.0000  0.0010  0.0014 </r>
        <r>  0.0000  0.0042  0.0030 </r>
        <r>  0.0004  0.0037  0.0032 </r>
        <r>  0.0000  0.0024  0.0025 </r>
        <r>  0.0028  0.0048  0.0021 </r>
        <r>  0.0001  0.0007  0.0022 </r>
        <r>  0.0000  0.0011  0.0020 </r>
        <r>  0.0002  0.0016  0.0009 </r>
        <r>  0.0000  0.0020  0.0011 </r>
        <r>  0.0040  0.0065  0.0007 </r>
        <r>  0.0016  0.0048  0.0011 </r>
        <r>  0.0015  0.0095  0.0014 </r>
        <r>  0.0006  0.0011  0.0012 </r>
        <r>  0.0002  0.0007  0.0004 </r>
        <r>  0.0012  0.0014  0.0034 </r>
        <r>  0.0001  0.0027  0.0023 </r>
        <r>  0.0015  0.0017  0.0029 </r>
        <r>  0.0013  0.0017  0.0006 </r>
        <r>  0.0000  0.0037  0.0019 </r>
        <r>  0.0034  0.0052  0.0030 </r>
        <r>  0.0000  0.0031  0.0005 </r>
        <r>  0.0002  0.0031  0.0003 </r>
        <r>  0.0000  0.0018  0.0008 </r>
        <r>  0.0005  0.0016  0.0030 </r>
        <r>  0.0005  0.0015  0.0016 </r>
        <r>  0.0010  0.0003  0.0006 </r>
        <r>  0.0006  0.0040  0.0007 </r>
        <r>  0.0007  0.0009  0.0025 </r>
        <r>  0.0021  0.0031  0.0006 </r>
        <r>  0.0002  0.0023  0.0015 </r>
        <r>  0.0017  0.0017  0.0000 </r>
        <r>  0.0003  0.0018  0.0000 </r>
        <r>  0.0001  0.0002  0.0000 </r>
        <r>  0.0000  0.0006  0.0000 </r>
        <r>  0.0001  0.0004  0.0000 </r>
        <r>  0.0000  0.0001  0.0000 </r>
        <r>  0.0001  0.0000  0.0000 </r>
        <r>  0.0001  0.0000  0.0000 </r>
       </set>
       <set comment="band 205">
        <r>  0.0005  0.0033  0.0026 </r>
        <r>  0.0000  0.0018  0.0023 </r>
        <r>  0.0003  0.0021  0.0023 </r>
        <r>  0.0000  0.0030  0.0019 </r>
        <r>  0.0029  0.0037  0.0023 </r>
        <r>  0.0006  0.0015  0.0033 </r>
        <r>  0.0000  0.0011  0.0015 </r>
        <r>  0.0007  0.0022  0.0010 </r>
        <r>  0.0013  0.0037  0.0021 </r>
        <r>  0.0018  0.0062  0.0009 </r>
        <r>  0.0003  0.0051  0.0019 </r>
        <r>  0.0005  0.0036  0.0018 </r>
        <r>  0.0009  0.0027  0.0017 </r>
        <r>  0.0003  0.0027  0.0023 </r>
        <r>  0.0003  0.0012  0.0031 </r>
        <r>  0.0006  0.0008  0.0012 </r>
        <r>  0.0000  0.0029  0.0012 </r>
        <r>  0.0002  0.0006  0.0026 </r>
        <r>  0.0000  0.0074  0.0006 </r>
        <r>  0.0019  0.0018  0.0015 </r>
        <r>  0.0001  0.0008  0.0006 </r>
        <r>  0.0016  0.0053  0.0019 </r>
        <r>  0.0003  0.0028  0.0007 </r>
        <r>  0.0012  0.0063  0.0008 </r>
        <r>  0.0001  0.0003  0.0019 </r>
        <r>  0.0007  0.0036  0.0012 </r>
        <r>  0.0003  0.0007  0.0029 </r>
        <r>  0.0031  0.0014  0.0017 </r>
        <r>  0.0000  0.0012  0.0035 </r>
        <r>  0.0000  0.0027  0.0023 </r>
        <r>  0.0009  0.0021  0.0000 </r>
        <r>  0.0053  0.0001  0.0000 </r>
        <r>  0.0000  0.0002  0.0000 </r>
        <r>  0.0000  0.0006  0.0000 </r>
        <r>  0.0004  0.0005  0.0000 </r>
        <r>  0.0000  0.0005  0.0000 </r>
        <r>  0.0002  0.0002  0.0000 </r>
        <r>  0.0004  0.0005  0.0000 </r>
       </set>
       <set comment="band 206">
        <r>  0.0001  0.0034  0.0040 </r>
        <r>  0.0023  0.0022  0.0017 </r>
        <r>  0.0002  0.0088  0.0014 </r>
        <r>  0.0021  0.0024  0.0011 </r>
        <r>  0.0033  0.0018  0.0035 </r>
        <r>  0.0001  0.0024  0.0014 </r>
        <r>  0.0033  0.0078  0.0017 </r>
        <r>  0.0000  0.0029  0.0030 </r>
        <r>  0.0003  0.0047  0.0032 </r>
        <r>  0.0010  0.0051  0.0038 </r>
        <r>  0.0008  0.0018  0.0024 </r>
        <r>  0.0001  0.0055  0.0020 </r>
        <r>  0.0001  0.0058  0.0005 </r>
        <r>  0.0010  0.0014  0.0033 </r>
        <r>  0.0000  0.0023  0.0016 </r>
        <r>  0.0040  0.0088  0.0034 </r>
        <r>  0.0011  0.0076  0.0020 </r>
        <r>  0.0009  0.0043  0.0003 </r>
        <r>  0.0003  0.0035  0.0015 </r>
        <r>  0.0003  0.0008  0.0028 </r>
        <r>  0.0002  0.0003  0.0005 </r>
        <r>  0.0000  0.0052  0.0021 </r>
        <r>  0.0001  0.0018  0.0034 </r>
        <r>  0.0006  0.0024  0.0019 </r>
        <r>  0.0000  0.0058  0.0027 </r>
        <r>  0.0003  0.0027  0.0047 </r>
        <r>  0.0001  0.0033  0.0021 </r>
        <r>  0.0020  0.0014  0.0039 </r>
        <r>  0.0001  0.0023  0.0020 </r>
        <r>  0.0001  0.0006  0.0049 </r>
        <r>  0.0001  0.0016  0.0000 </r>
        <r>  0.0007  0.0046  0.0000 </r>
        <r>  0.0001  0.0000  0.0000 </r>
        <r>  0.0000  0.0000  0.0000 </r>
        <r>  0.0005  0.0007  0.0000 </r>
        <r>  0.0000  0.0002  0.0000 </r>
        <r>  0.0000  0.0004  0.0000 </r>
        <r>  0.0001  0.0003  0.0000 </r>
       </set>
       <set comment="band 207">
        <r>  0.0018  0.0008  0.0007 </r>
        <r>  0.0002  0.0051  0.0011 </r>
        <r>  0.0020  0.0008  0.0007 </r>
        <r>  0.0000  0.0022  0.0030 </r>
        <r>  0.0007  0.0056  0.0048 </r>
        <r>  0.0094  0.0093  0.0026 </r>
        <r>  0.0017  0.0031  0.0023 </r>
        <r>  0.0008  0.0055  0.0015 </r>
        <r>  0.0004  0.0017  0.0007 </r>
        <r>  0.0001  0.0011  0.0038 </r>
        <r>  0.0003  0.0033  0.0033 </r>
        <r>  0.0011  0.0019  0.0032 </r>
        <r>  0.0013  0.0064  0.0025 </r>
        <r>  0.0036  0.0043  0.0014 </r>
        <r>  0.0000  0.0041  0.0036 </r>
        <r>  0.0017  0.0013  0.0049 </r>
        <r>  0.0001  0.0084  0.0010 </r>
        <r>  0.0000  0.0032  0.0019 </r>
        <r>  0.0001  0.0015  0.0012 </r>
        <r>  0.0046  0.0058  0.0025 </r>
        <r>  0.0014  0.0046  0.0040 </r>
        <r>  0.0012  0.0044  0.0014 </r>
        <r>  0.0001  0.0065  0.0014 </r>
        <r>  0.0006  0.0028  0.0019 </r>
        <r>  0.0005  0.0002  0.0025 </r>
        <r>  0.0010  0.0020  0.0011 </r>
        <r>  0.0003  0.0011  0.0010 </r>
        <r>  0.0000  0.0002  0.0031 </r>
        <r>  0.0001  0.0005  0.0002 </r>
        <r>  0.0003  0.0002  0.0017 </r>
        <r>  0.0003  0.0019  0.0000 </r>
        <r>  0.0001  0.0037  0.0000 </r>
        <r>  0.0000  0.0003  0.0000 </r>
        <r>  0.0000  0.0002  0.0000 </r>
        <r>  0.0010  0.0004  0.0000 </r>
        <r>  0.0000  0.0006  0.0000 </r>
        <r>  0.0000  0.0002  0.0000 </r>
        <r>  0.0000  0.0006  0.0000 </r>
       </set>
       <set comment="band 208">
        <r>  0.0012  0.0011  0.0014 </r>
        <r>  0.0004  0.0014  0.0034 </r>
        <r>  0.0000  0.0005  0.0005 </r>
        <r>  0.0003  0.0098  0.0035 </r>
        <r>  0.0000  0.0026  0.0012 </r>
        <r>  0.0000  0.0020  0.0009 </r>
        <r>  0.0025  0.0096  0.0037 </r>
        <r>  0.0013  0.0027  0.0022 </r>
        <r>  0.0004  0.0015  0.0011 </r>
        <r>  0.0008  0.0010  0.0018 </r>
        <r>  0.0001  0.0170  0.0061 </r>
        <r>  0.0001  0.0020  0.0013 </r>
        <r>  0.0002  0.0005  0.0014 </r>
        <r>  0.0005  0.0034  0.0035 </r>
        <r>  0.0008  0.0004  0.0034 </r>
        <r>  0.0004  0.0057  0.0043 </r>
        <r>  0.0010  0.0006  0.0011 </r>
        <r>  0.0002  0.0021  0.0031 </r>
        <r>  0.0029  0.0099  0.0019 </r>
        <r>  0.0016  0.0012  0.0011 </r>
        <r>  0.0000  0.0022  0.0009 </r>
        <r>  0.0001  0.0042  0.0017 </r>
        <r>  0.0048  0.0040  0.0016 </r>
        <r>  0.0010  0.0042  0.0005 </r>
        <r>  0.0001  0.0022  0.0006 </r>
        <r>  0.0008  0.0028  0.0011 </r>
        <r>  0.0004  0.0056  0.0003 </r>
        <r>  0.0028  0.0019  0.0009 </r>
        <r>  0.0008  0.0013  0.0048 </r>
        <r>  0.0008  0.0009  0.0023 </r>
        <r>  0.0000  0.0018  0.0000 </r>
        <r>  0.0000  0.0037  0.0000 </r>
        <r>  0.0002  0.0003  0.0000 </r>
        <r>  0.0001  0.0002  0.0000 </r>
        <r>  0.0000  0.0001  0.0000 </r>
        <r>  0.0002  0.0001  0.0000 </r>
        <r>  0.0001  0.0001  0.0000 </r>
        <r>  0.0001  0.0006  0.0000 </r>
       </set>
      </set>
     </set>
    </set>
   </array>
  </projected>
 </calculation>
 <structure name="finalpos" >
  <crystal>
   <varray name="basis" >
    <v>      16.00000000       0.00000000       0.00000000 </v>
    <v>       0.00000000      16.00000000       0.00000000 </v>
    <v>       0.00000000       0.00000000      16.00000000 </v>
   </varray>
   <i name="volume">   4096.00000000 </i>
   <varray name="rec_basis" >
    <v>       0.06250000       0.00000000       0.00000000 </v>
    <v>       0.00000000       0.06250000       0.00000000 </v>
    <v>       0.00000000       0.00000000       0.06250000 </v>
   </varray>
  </crystal>
  <varray name="positions" >
   <v>       0.25837966       0.46001718       0.40451246 </v>
   <v>       0.53461603       0.47369467       0.64942998 </v>
   <v>       0.54021342       0.69208621       0.35392267 </v>
   <v>       0.56783040       0.28446887       0.33721093 </v>
   <v>       0.38635257       0.46792568       0.62741467 </v>
   <v>       0.65900245       0.63703681       0.42700921 </v>
   <v>       0.68001127       0.34495585       0.41750164 </v>
   <v>       0.31872024       0.58177711       0.35773312 </v>
   <v>       0.31900581       0.33565258       0.36930467 </v>
   <v>       0.35668083       0.47146049       0.25450619 </v>
   <v>       0.57415395       0.27184322       0.48895122 </v>
   <v>       0.54590202       0.69073226       0.50383363 </v>
   <v>       0.60650147       0.56316121       0.30332568 </v>
   <v>       0.64834890       0.41741393       0.28992400 </v>
   <v>       0.46233525       0.59222392       0.57409245 </v>
   <v>       0.47417208       0.33791182       0.58758359 </v>
   <v>       0.45101736       0.58834943       0.29694329 </v>
   <v>       0.43926719       0.34214623       0.29120745 </v>
   <v>       0.44879182       0.31492930       0.43771964 </v>
   <v>       0.41679563       0.65553598       0.43859203 </v>
   <v>       0.34444403       0.53947710       0.49943465 </v>
   <v>       0.34275013       0.38774967       0.50948816 </v>
   <v>       0.50903295       0.46182401       0.25697538 </v>
   <v>       0.60739465       0.55624659       0.54443576 </v>
   <v>       0.61182077       0.40549790       0.53654989 </v>
   <v>       0.66907612       0.49214768       0.42338450 </v>
   <v>       0.47671953       0.45842871       0.51639506 </v>
   <v>       0.52385787       0.56122259       0.42304834 </v>
   <v>       0.54867703       0.41392498       0.39259446 </v>
   <v>       0.40512256       0.46128655       0.38473056 </v>
   <v>       0.66240883       0.56002287       0.79365267 </v>
   <v>       0.60073558       0.48957508       0.77589820 </v>
   <v>       0.64143114       0.59827078       0.84678906 </v>
   <v>       0.66901699       0.60139776       0.73916737 </v>
   <v>       0.53675547       0.51546474       0.76286314 </v>
   <v>       0.59243326       0.44638596       0.82869216 </v>
   <v>       0.72461785       0.53506141       0.80890084 </v>
   <v>       0.62423307       0.44936570       0.72292161 </v>
  </varray>
 </structure>
</modeling>
